ITEM: TIMESTEP
0
ITEM: NUMBER OF ATOMS
24
ITEM: BOX BOUNDS pp pp pp
-8.0000000000000000e+02 8.0000000000000000e+02
-8.0000000000000000e+02 8.0000000000000000e+02
-8.0000000000000000e+02 8.0000000000000000e+02
ITEM: ATOMS id x y z vx vy vz angmomx angmomy angmomz c_quat[1] c_quat[2] c_quat[3] c_quat[4]
1   2.005320284   2.539099020  -1.136203548   0.000000000   0.000000000   0.000000000   0.000000000   0.000000000   0.000000000 -3.489659e-01  5.152277e-02  8.528516e-02  9.318233e-01
2   1.697810210   2.862310154  -0.753741303   0.000000000   0.000000000   0.000000000   0.000000000   0.000000000   0.000000000  7.414146e-01  2.133699e-02 -7.962675e-02 -6.659645e-01
3   1.310204060   2.754140964  -0.315673760   0.000000000   0.000000000   0.000000000   0.000000000   0.000000000   0.000000000  8.274675e-01 -1.314875e-01  3.569493e-03 -5.458899e-01
4   1.080553874   2.655200751   0.189474920   0.000000000   0.000000000   0.000000000   0.000000000   0.000000000   0.000000000  9.866708e-01 -3.042978e-02  5.958644e-02 -1.483383e-01
5   0.999953041   2.281897159   0.650399155   0.000000000   0.000000000   0.000000000   0.000000000   0.000000000   0.000000000  9.825227e-01 -2.089945e-02  8.675070e-02  1.633606e-01
6   1.188136887   1.979155905   1.103750880   0.000000000   0.000000000   0.000000000   0.000000000   0.000000000   0.000000000  8.957934e-01  2.021693e-03  1.525723e-01  4.174586e-01
7   1.517939601   1.860849294   1.494957457   0.000000000   0.000000000   0.000000000   0.000000000   0.000000000   0.000000000  8.209041e-01 -1.220732e-02  1.789968e-01  5.421508e-01
8   1.992693344   1.922751820   1.789018214   0.000000000   0.000000000   0.000000000   0.000000000   0.000000000   0.000000000  5.993667e-01  2.553675e-02  2.087670e-01  7.723495e-01
9   2.324969583   2.255074815   2.030219428   0.000000000   0.000000000   0.000000000   0.000000000   0.000000000   0.000000000  2.726460e-01  1.052273e-01  2.076630e-01  9.335242e-01
10   2.550209464   2.747877560   2.271134810   0.000000000   0.000000000   0.000000000   0.000000000   0.000000000   0.000000000 -1.374312e-01  8.486614e-02  2.180303e-01  9.624828e-01
11   2.422191509   3.176113684   2.577771137   0.000000000   0.000000000   0.000000000   0.000000000   0.000000000   0.000000000 -2.830898e-01  1.020321e-01  1.749304e-01  9.374695e-01
12   2.151260566   3.571297546   2.860677389   0.000000000   0.000000000   0.000000000   0.000000000   0.000000000   0.000000000  7.264080e-01 -1.775422e-01 -1.625820e-01 -6.437214e-01
13   1.981024141   2.474988794   3.326106214   0.000000000   0.000000000   0.000000000   0.000000000   0.000000000   0.000000000  5.249277e-02  6.553697e-01  7.182288e-01 -2.277771e-01
14   1.519358387   2.347647706   2.982828932   0.000000000   0.000000000   0.000000000   0.000000000   0.000000000   0.000000000  1.047525e-01  9.375503e-01  2.767814e-01 -1.828071e-01
15   1.301751371   2.562199834   2.493649811   0.000000000   0.000000000   0.000000000   0.000000000   0.000000000   0.000000000  1.786455e-01  9.618297e-01  1.469381e-01 -1.462140e-01
16   1.154335710   2.701276554   1.965991523   0.000000000   0.000000000   0.000000000   0.000000000   0.000000000   0.000000000  1.239604e-01  9.636035e-01 -2.349592e-01 -2.993923e-02
17   1.290549425   2.968278939   1.460284104   0.000000000   0.000000000   0.000000000   0.000000000   0.000000000   0.000000000  1.029361e-01  8.449198e-01 -5.214320e-01  6.019445e-02
18   1.618983329   3.076631838   0.988436253   0.000000000   0.000000000   0.000000000   0.000000000   0.000000000   0.000000000  9.883269e-02  6.588631e-01 -7.345209e-01  1.288824e-01
19   1.944850680   2.917988797   0.591520478   0.000000000   0.000000000   0.000000000   0.000000000   0.000000000   0.000000000  1.155416e-01  5.561901e-01 -8.135328e-01  1.243665e-01
20   2.206051052   2.583308177   0.275377632   0.000000000   0.000000000   0.000000000   0.000000000   0.000000000   0.000000000 -7.604845e-02 -2.488993e-01  9.514068e-01 -1.645928e-01
21   2.210970352   2.105018250   0.019968409   0.000000000   0.000000000   0.000000000   0.000000000   0.000000000   0.000000000 -2.809598e-02  9.654299e-02  9.763425e-01 -1.914297e-01
22   1.973727463   1.671976372  -0.309147193   0.000000000   0.000000000   0.000000000   0.000000000   0.000000000   0.000000000 -3.918143e-02  5.146140e-01  8.399146e-01 -1.678713e-01
23   1.622585327   1.589308203  -0.687746804   0.000000000   0.000000000   0.000000000   0.000000000   0.000000000   0.000000000 -2.328638e-02  6.687815e-01  7.365825e-01 -9.815962e-02
24   1.189400387   1.623804003  -1.057312456   0.000000000   0.000000000   0.000000000   0.000000000   0.000000000   0.000000000  7.346117e-02  9.267594e-01  3.683473e-01  6.383765e-03
ITEM: TIMESTEP
1000
ITEM: NUMBER OF ATOMS
24
ITEM: BOX BOUNDS pp pp pp
-8.0000000000000000e+02 8.0000000000000000e+02
-8.0000000000000000e+02 8.0000000000000000e+02
-8.0000000000000000e+02 8.0000000000000000e+02
ITEM: ATOMS id x y z vx vy vz angmomx angmomy angmomz c_quat[1] c_quat[2] c_quat[3] c_quat[4]
1   2.006290710   2.536960394  -1.133200838   0.534299516  -0.002962316   0.579087681   0.287417904   0.484616341   1.508251801 -3.572771e-01  5.449493e-02  7.702137e-02  9.292207e-01
2   1.697305934   2.861921733  -0.757972356   0.030778900   0.368016442  -0.763463866  -0.114260895  -0.410269242   1.273044998  7.410406e-01  2.135578e-02 -8.719802e-02 -6.654317e-01
3   1.304122304   2.762716227  -0.317347928  -0.593428582   1.291499080   0.151968543   0.481802767  -0.262723256   0.329598027  8.281129e-01 -1.296511e-01  8.660970e-03 -5.452931e-01
4   1.077732855   2.653853941   0.193115847  -0.223926969   0.087635171   0.076834589  -0.078935979   1.436722777  -0.263139395  9.857639e-01 -3.272003e-02  6.770754e-02 -1.503815e-01
5   0.998686651   2.289137255   0.648772852   0.048582833   0.556111563  -0.521775421   0.275184215  -0.898218624   0.016478801  9.825870e-01 -1.667912e-02  8.428335e-02  1.647448e-01
6   1.191778434   1.981912078   1.101746878   0.485034043   0.503907880  -0.549894121  -0.223132786   0.321102532   0.063246210  8.966431e-01  6.439994e-03  1.548830e-01  4.147300e-01
7   1.515144290   1.860965320   1.495081969  -0.396962928  -0.105707696   0.204288469   0.067253839  -0.748155348  -0.467061019  8.221491e-01 -1.930689e-02  1.763761e-01  5.409156e-01
8   1.992270925   1.923223400   1.789222551   0.078012447   0.144972275  -0.089678762   0.614014837  -0.247709061  -0.814511477  6.004520e-01  2.982102e-02  2.061440e-01  7.720575e-01
9   2.322708476   2.259430888   2.033753452  -0.197689129   0.611378463   0.731219219   0.365412969   0.328894972   0.356538654  2.740078e-01  9.894547e-02  2.062157e-01  9.341331e-01
10   2.545123757   2.748968221   2.269963796  -0.670920795  -0.014198564  -0.109023505  -0.246215412  -0.410365809   0.781277798 -1.431931e-01  8.251999e-02  2.221335e-01  9.609073e-01
11   2.420102286   3.171643966   2.578429712  -0.354753766  -0.932680045  -0.229143921  -0.143519235   0.297929258  -0.200865786 -2.823898e-01  9.923107e-02  1.763238e-01  9.377202e-01
12   2.154656527   3.572793122   2.858307385   0.634283178   0.008673802  -0.495519666  -0.002822894  -0.007892298  -0.645255570  7.272465e-01 -1.779368e-01 -1.589369e-01 -6.435760e-01
13   1.979593480   2.477347650   3.326610892   0.007109413   0.264807085   0.339422894   0.320982119  -1.077365558   0.571902555  5.419440e-02  6.554094e-01  7.210606e-01 -2.181125e-01
14   1.522980941   2.343293496   2.981071763   0.810323206  -0.509754905  -0.661223912   0.030805804   0.066051011  -0.077913162  1.011891e-01  9.373222e-01  2.783099e-01 -1.836614e-01
15   1.307237727   2.559531918   2.498880525   0.781943069  -0.212852804   0.868707239  -0.010012251  -0.352839368  -0.064379036  1.705839e-01  9.627374e-01  1.476518e-01 -1.491201e-01
16   1.152744687   2.697369134   1.968518545  -0.181774041  -0.457775486   0.608774533  -0.083687184   0.175540661   0.287948478  1.217237e-01  9.644458e-01 -2.321275e-01 -3.383061e-02
17   1.290708695   2.968726571   1.464929905   0.162752611   0.027139516   0.318236629  -0.074044245  -0.394705067  -0.067443201  1.014522e-01  8.416933e-01 -5.267493e-01  6.160374e-02
18   1.617943600   3.074508278   0.989948084  -0.005159050  -0.792579941   0.070239889  -0.408279201  -1.022320568   0.042021170  9.096635e-02  6.573283e-01 -7.347065e-01  1.408933e-01
19   1.940534247   2.915303884   0.586381467  -0.645805326  -0.142123158  -1.224588483   0.219891223  -0.230496798  -0.977277549  1.168758e-01  5.561673e-01 -8.143636e-01  1.176009e-01
20   2.206462645   2.578941291   0.275030638  -0.281170830  -0.161949408  -0.277908595   0.671130884  -0.183063555   0.370680997 -6.777457e-02 -2.533520e-01  9.516017e-01 -1.602297e-01
21   2.210290499   2.102839792   0.021590804   0.262145155  -0.363470101   0.218841437  -0.191779714   1.200124047  -0.172706744 -3.396998e-02  9.256099e-02  9.766769e-01 -1.907374e-01
22   1.973368347   1.667219717  -0.310849106   0.295610096  -0.797432099  -0.359451634  -0.527786516  -0.532640748   0.936940659 -3.304564e-02  5.053011e-01  8.459705e-01 -1.670710e-01
23   1.623149808   1.591181454  -0.687573015   0.150957361   0.193162578   0.217876585  -0.116471239   0.036394947  -1.969386693 -2.561872e-02  6.767184e-01  7.287829e-01 -1.013481e-01
24   1.191659380   1.623778490  -1.059089426   0.255739024   0.054665316  -0.104995553  -0.593782420   0.234907255  -0.534552764  7.136274e-02  9.281418e-01  3.653141e-01  2.395533e-03
ITEM: TIMESTEP
2000
ITEM: NUMBER OF ATOMS
24
ITEM: BOX BOUNDS pp pp pp
-8.0000000000000000e+02 8.0000000000000000e+02
-8.0000000000000000e+02 8.0000000000000000e+02
-8.0000000000000000e+02 8.0000000000000000e+02
ITEM: ATOMS id x y z vx vy vz angmomx angmomy angmomz c_quat[1] c_quat[2] c_quat[3] c_quat[4]
1   2.006095048   2.535683953  -1.127191695  -0.187967463  -0.124411819   0.877488438  -0.137426666   0.811046532   1.212345837 -3.663081e-01  6.153822e-02  7.747537e-02  9.252183e-01
2   1.699609866   2.862530160  -0.760311154   0.222161308  -0.067914058  -0.234958679  -0.931399089   1.125965755   1.125300007  7.489302e-01  6.168315e-03 -8.972541e-02 -6.565172e-01
3   1.296220902   2.771002705  -0.314339529  -1.230886644   0.282462719   0.583587906  -0.874655859   0.875204500  -0.123137788  8.282605e-01 -1.285626e-01  7.962978e-03 -5.453374e-01
4   1.073946284   2.655942533   0.192132184  -0.601988217   0.288170182  -0.256852650   0.489973458   0.730092963   0.578254263  9.852000e-01 -3.316086e-02  7.785534e-02 -1.490632e-01
5   0.999602098   2.289798503   0.646732240  -0.172627854  -0.141989013  -0.009943665   0.550464366   0.237748739  -1.134207523  9.839498e-01 -1.782597e-02  7.721671e-02  1.598828e-01
6   1.195335437   1.984775312   1.097814139   0.250352939   0.118126532  -0.288482959  -0.037832764  -1.830268947  -0.325170240  8.982613e-01  4.251601e-03  1.498536e-01  4.131011e-01
7   1.508747533   1.861827984   1.494971134  -1.221545223  -0.070974715  -0.198543439  -0.223766296  -0.299663705   0.219542041  8.270793e-01 -3.052942e-02  1.710853e-01  5.345443e-01
8   1.993599231   1.922710401   1.784497705   0.220801390   0.055129435  -0.463375121   0.422385649  -0.098671779   0.396208397  5.955581e-01  3.651976e-02  2.007768e-01  7.769592e-01
9   2.320706894   2.268564920   2.037909504  -0.294693573   0.634380470   0.196475311  -0.555569787   0.492556669  -0.496015086  2.742868e-01  1.003498e-01  2.108704e-01  9.328614e-01
10   2.538334886   2.742610289   2.270550939  -0.401831045  -0.765873420   0.584725849  -0.538048446   0.570765761  -1.317312543 -1.455549e-01  8.712894e-02  2.240182e-01  9.597073e-01
11   2.420355409   3.164747002   2.579070947  -0.010199853  -0.267601931   0.130021736   0.823566546   0.799540502   0.958792489 -2.813686e-01  1.020039e-01  1.693937e-01  9.390062e-01
12   2.159188239   3.569842483   2.853951046  -0.082064392  -0.455619816  -0.182121324  -0.822497305  -0.304949398  -1.072270372  7.193941e-01 -1.791026e-01 -1.633290e-01 -6.509363e-01
13   1.979110428   2.476949310   3.326317597  -0.157170418  -0.588903143  -0.325548139   0.850294882   0.294446778  -1.843674127  5.433481e-02  6.623877e-01  7.167212e-01 -2.111896e-01
14   1.531771277   2.335516923   2.973349939   0.881952230  -1.169610662  -0.342842077  -0.135880462  -0.570517949   0.399279671  1.009394e-01  9.372062e-01  2.824575e-01 -1.779707e-01
15   1.313517722   2.562934560   2.505939825   0.573076675   0.617084852   1.066892769   0.379409549  -0.842837937  -1.745653444  1.689330e-01  9.646233e-01  1.447207e-01 -1.414904e-01
16   1.150231413   2.691762435   1.972874294  -0.498683174  -0.509749270   0.218067058  -0.120597661  -0.111981852   0.292364552  1.214890e-01  9.656830e-01 -2.271716e-01 -3.301251e-02
17   1.291896368   2.970780829   1.463131569   0.054097707  -0.086186898  -0.639931172   1.239764480   0.461343808   0.055024136  9.651153e-02  8.412216e-01 -5.286277e-01  5.987028e-02
18   1.614728707   3.067321190   0.991033104  -0.487539796  -0.683687587   0.372953771   0.274896724  -0.631833878  -0.372071212  8.669417e-02  6.558423e-01 -7.366840e-01  1.401846e-01
19   1.931015375   2.915755778   0.576686932  -1.265960152   0.100596189  -0.790324746  -0.354011867   0.258496343  -0.754548868  1.194135e-01  5.476259e-01 -8.190429e-01  1.225359e-01
20   2.205711243   2.581293709   0.271961787  -0.155673672   0.349833629  -0.384845507   0.350525929  -0.607074193  -0.765900676 -5.684122e-02 -2.543482e-01  9.536852e-01 -1.502020e-01
21   2.212151491   2.095800724   0.022239748   0.340042237  -1.013456532   0.293983339   0.276993555  -0.297613921   0.048169359 -4.013449e-02  9.432621e-02  9.760219e-01 -1.920233e-01
22   1.973011054   1.663842345  -0.313588843  -0.136442477  -0.071350599  -0.108017942  -1.465988866  -0.681985341   0.016497222 -2.253513e-02  5.022064e-01  8.465792e-01 -1.748845e-01
23   1.623070610   1.594667377  -0.685107278   0.054446121   0.320747394   0.679903888  -1.136627197   0.494048522  -1.241898725 -2.822531e-02  6.905526e-01  7.148265e-01 -1.065999e-01
24   1.189247859   1.623905486  -1.056864521  -0.621618638  -0.089255618   0.185973907  -1.191765962   0.146908703   0.623085113  7.962019e-02  9.267117e-01  3.672405e-01  7.096738e-04
ITEM: TIMESTEP
3000
ITEM: NUMBER OF ATOMS
24
ITEM: BOX BOUNDS pp pp pp
-8.0000000000000000e+02 8.0000000000000000e+02
-8.0000000000000000e+02 8.0000000000000000e+02
-8.0000000000000000e+02 8.0000000000000000e+02
ITEM: ATOMS id x y z vx vy vz angmomx angmomy angmomz c_quat[1] c_quat[2] c_quat[3] c_quat[4]
1   2.003982608   2.534396545  -1.121937785  -0.417408697   0.196578598   0.383849945   0.366650093   0.245441034   0.365726623 -3.787969e-01  5.945520e-02  7.317746e-02  9.206645e-01
2   1.705077278   2.859865046  -0.762969454   0.913162228  -0.630163111  -0.386914051  -0.508738245   0.689962708  -0.586638857  7.521393e-01 -5.458133e-03 -8.161987e-02 -6.539074e-01
3   1.284982681   2.770399382  -0.314435319  -1.261439456   0.154561458  -0.184263671  -0.196663843  -0.393278308  -0.206526456  8.281863e-01 -1.369281e-01  1.080277e-02 -5.433612e-01
4   1.067918692   2.660781139   0.186309611  -0.413555814   0.532413742  -0.716630628   0.032566511   0.516345697   1.205878353  9.858794e-01 -3.783079e-02  8.341958e-02 -1.401848e-01
5   1.000846581   2.291528410   0.644273499   0.105637533  -0.003509235  -0.384611876   0.376833234  -0.268891235  -1.375567401  9.857167e-01 -1.185275e-02  7.677816e-02  1.494230e-01
6   1.197990422   1.991954620   1.092846282   0.352200887   1.111850909  -0.405551626   0.400287778  -0.391338554  -0.972290963  9.028246e-01  6.523414e-03  1.380507e-01  4.071943e-01
7   1.498441514   1.863256897   1.495088635  -0.447807496   0.374165744  -0.007078898  -1.230283214   0.180087287   0.314358251  8.273258e-01 -3.787484e-02  1.709612e-01  5.337320e-01
8   1.994972110   1.919517951   1.781515742   0.069733110  -0.305757263  -0.405147389  -0.699444486  -1.162452631  -0.019996938  5.926962e-01  3.149277e-02  1.952204e-01  7.807742e-01
9   2.318986759   2.273533290   2.039004919  -0.123478656   0.289146505   0.481058692   0.707574568  -0.209097454   0.630460207  2.748214e-01  1.024586e-01  2.124014e-01  9.321272e-01
10   2.533440935   2.739380010   2.274840128  -0.800373408   0.209322988   0.575424551  -0.399917361   0.362841395  -0.962126620 -1.375630e-01  9.274589e-02  2.284518e-01  9.593146e-01
11   2.419013568   3.162402403   2.581623298   0.056601872  -0.578278202   0.588382651  -0.118997364  -0.188802702   0.604064562 -2.939824e-01  1.066721e-01  1.667747e-01  9.350837e-01
12   2.154436205   3.566675264   2.855838891  -0.694554532  -0.244844341   0.381243720  -1.439001784   0.304860341  -0.422275133  7.116448e-01 -1.842651e-01 -1.744407e-01 -6.551171e-01
13   1.977042650   2.468867378   3.321420150   0.174143222  -0.842986854  -0.281235953  -0.101577090  -0.206731521  -0.696210740  4.776107e-02  6.688540e-01  7.109368e-01 -2.119482e-01
14   1.539752716   2.329062535   2.968617908   0.613190579  -0.271979271  -0.461398063   0.252401732  -0.250979680  -0.867542760  9.879644e-02  9.386632e-01  2.801304e-01 -1.751501e-01
15   1.317593902   2.565559198   2.511047924   0.240467450  -0.142370559   0.061989699   0.153790472  -0.770402670  -1.135502036  1.638300e-01  9.693057e-01  1.253527e-01 -1.337640e-01
16   1.142956491   2.685444256   1.974167291  -0.685038438  -0.425715121   0.465320797  -0.399738528  -0.448449856   0.354869022  1.205076e-01  9.659133e-01 -2.268621e-01 -3.198395e-02
17   1.292164982   2.967512129   1.461304496   0.379558873  -0.618249980   0.412054430   0.620073747   0.573971007   0.330685711  8.784871e-02  8.448633e-01 -5.257098e-01  4.601967e-02
18   1.611067089   3.059704087   0.990894241  -0.626919561  -1.007296345  -0.213537316  -0.882121833   0.140978838  -0.357368002  9.109217e-02  6.516326e-01 -7.397662e-01  1.407946e-01
19   1.917797141   2.920416732   0.572219772  -0.983717315   0.376650450  -0.134308565   0.296820579   0.332679108  -0.226508804  1.231539e-01  5.469270e-01 -8.185069e-01  1.255004e-01
20   2.204571768   2.582341359   0.267805607   0.188962203  -0.299382982  -0.492151868   0.959485485  -0.198650012   0.847764441 -5.494017e-02 -2.529552e-01  9.550919e-01 -1.442038e-01
21   2.218684379   2.086079741   0.026093029   0.889983983  -0.806725921   0.357792445   0.309535337   0.485870361   0.306425207 -3.588662e-02  9.279480e-02  9.762310e-01 -1.925470e-01
22   1.971194002   1.660429062  -0.310315476  -0.080833689  -0.723969516   0.470413249  -1.424129061   1.409136701  -0.168012886 -1.998154e-02  5.064852e-01  8.423202e-01 -1.832219e-01
23   1.623210965   1.600876042  -0.679502871  -0.112692027   0.656415485   0.451558874  -0.085229923   0.078361909   0.638050823 -2.533331e-02  6.909389e-01  7.137793e-01 -1.117175e-01
24   1.185590466   1.623388551  -1.053286092   0.156958714  -0.023665389   0.755009375  -0.739520406  -0.198143365   0.855324371  9.442450e-02  9.226663e-01  3.738561e-01 -1.579941e-03
ITEM: TIMESTEP
4000
ITEM: NUMBER OF ATOMS
24
ITEM: BOX BOUNDS pp pp pp
-8.0000000000000000e+02 8.0000000000000000e+02
-8.0000000000000000e+02 8.0000000000000000e+02
-8.0000000000000000e+02 8.0000000000000000e+02
ITEM: ATOMS id x y z vx vy vz angmomx angmomy angmomz c_quat[1] c_quat[2] c_quat[3] c_quat[4]
1   2.005757191   2.537522066  -1.119077268   0.610324095   0.563195626   0.488394274   0.446789412  -0.213781346  -0.446536262 -3.774828e-01  5.985373e-02  7.643675e-02  9.209135e-01
2   1.710683422   2.855256623  -0.766494333   0.858471449  -0.674583082   0.052433990   0.109480633  -0.804788547  -0.823560325  7.439627e-01 -4.704600e-03 -8.561506e-02 -6.626971e-01
3   1.271734631   2.769920088  -0.313410602  -1.467889664   0.215751006   0.384377232   0.079584028  -0.619581152  -0.467750225  8.245470e-01 -1.321133e-01 -8.690964e-04 -5.501523e-01
4   1.060834607   2.663522580   0.174986218  -1.057265061   0.235754790  -1.371605580   0.552852172  -0.109376989   1.276510867  9.878532e-01 -2.888051e-02  8.375944e-02 -1.276568e-01
5   1.001736134   2.291534159   0.636530368   0.293724010  -0.317603965  -0.884053536   0.030476721  -0.871604899  -1.313707515  9.882517e-01 -1.097765e-02  7.167431e-02  1.345392e-01
6   1.196511633   2.000682935   1.091283925  -0.163576949   0.819731202   0.153994805   0.807615469   0.058008135  -0.385501435  9.039986e-01  1.317742e-02  1.307262e-01  4.068457e-01
7   1.492697792   1.865386893   1.497287299  -0.316794595   0.301166779   0.004133334  -1.822367824  -0.139139104   0.538971878  8.214544e-01 -4.964554e-02  1.823742e-01  5.380406e-01
8   1.994412036   1.914153442   1.774253852   0.044969344  -0.326969594  -0.692687792   0.053565587  -0.272455918  -0.075124772  5.967826e-01  3.006988e-02  1.926630e-01  7.783491e-01
9   2.321412309   2.278717347   2.039049662   0.284397291   0.896977006  -0.633002883   0.898688197   0.550274934   0.543975260  2.671835e-01  1.012101e-01  2.099123e-01  9.350435e-01
10   2.524930226   2.742536336   2.276258535  -0.634751131   0.609538710  -0.141606057  -0.349408691   0.421867416  -0.019970771 -1.268913e-01  1.000011e-01  2.348176e-01  9.585192e-01
11   2.420924239   3.154138003   2.587682489   0.089511762  -0.626762585   0.849632489   0.915089699  -0.428713443   0.181224138 -2.971158e-01  9.949240e-02  1.678623e-01  9.346902e-01
12   2.146528977   3.561417304   2.855992693  -0.806293181  -0.393665741  -0.200218236  -0.726184260  -0.117443081  -0.862428185  7.045612e-01 -1.961200e-01 -1.854268e-01 -6.563135e-01
13   1.977017044   2.466934855   3.317598127  -0.514534804  -0.062526147  -0.160037203  -0.009795939   0.024449214   0.237307536  4.946588e-02  6.671881e-01  7.118715e-01 -2.136636e-01
14   1.542415175   2.321970905   2.959451962   0.193116834  -0.696503507  -0.407666598   0.088079616   0.012784938  -0.862612517  9.276865e-02  9.423707e-01  2.724573e-01 -1.705830e-01
15   1.315344335   2.567028768   2.508603495  -0.618054793   0.284040938  -0.443318130   0.085405958  -1.322894333  -0.965087839  1.600100e-01  9.714761e-01  1.145554e-01 -1.323180e-01
16   1.136956622   2.683133001   1.982383374  -0.449459884   0.017450379   0.684660546   0.632113221   0.515598703  -0.527819738  1.181820e-01  9.656275e-01 -2.290140e-01 -3.389852e-02
17   1.297535231   2.963147427   1.461321935   0.572474607   0.179770594  -0.189420243  -0.643578017  -0.012691598  -0.417807049  8.991710e-02  8.454621e-01 -5.244113e-01  4.584144e-02
18   1.608093570   3.052274307   0.990477135   0.269100435  -0.831102480  -0.516863168  -0.475848274  -1.548627821  -0.550305421  8.805649e-02  6.508242e-01 -7.393602e-01  1.483928e-01
19   1.912692980   2.921873164   0.574765176  -0.195154819   0.206639247   0.781181226   1.197024637   0.228876845   0.144360360  1.158815e-01  5.487455e-01 -8.191960e-01  1.198653e-01
20   2.204129005   2.581874758   0.266016572  -0.744763512   0.124912178   0.250357858   0.357459032  -0.832932859   1.579748612 -4.576606e-02 -2.650066e-01  9.526986e-01 -1.415709e-01
21   2.228121950   2.080001403   0.028021829   0.942650990  -0.407726786   0.017052056  -0.340409499   1.731983537  -0.630105267 -4.835340e-02  9.123648e-02  9.756040e-01 -1.937385e-01
22   1.967783140   1.653016381  -0.309710542  -0.533363769  -0.735503510  -0.098883173  -0.852108315  -0.170644862   0.878924298 -1.662738e-02  4.996953e-01  8.414020e-01 -2.051116e-01
23   1.625522516   1.609416438  -0.673560827   0.471403876   1.170842524   0.417360483  -0.079232239  -0.839851941   1.064756342 -1.869420e-02  6.867304e-01  7.175100e-01 -1.150278e-01
24   1.187397140   1.625833546  -1.048923957  -0.103357135   0.194025311   0.979886400   0.689757253   0.743385487   0.874504883  9.511178e-02  9.203853e-01  3.792651e-01 -1.637501e-03
ITEM: TIMESTEP
5000
ITEM: NUMBER OF ATOMS
24
ITEM: BOX BOUNDS pp pp pp
-8.0000000000000000e+02 8.0000000000000000e+02
-8.0000000000000000e+02 8.0000000000000000e+02
-8.0000000000000000e+02 8.0000000000000000e+02
ITEM: ATOMS id x y z vx vy vz angmomx angmomy angmomz c_quat[1] c_quat[2] c_quat[3] c_quat[4]
1   2.007199474   2.543676361  -1.110959558   0.065577051   0.941299293   1.130264662   0.038870472  -0.235692166  -0.252709350 -3.737935e-01  5.311666e-02  8.372554e-02  9.221969e-01
2   1.720115638   2.852128655  -0.767349160   1.281640838   0.092121498   0.138186503  -0.252713079  -0.482904922  -0.967961242  7.390595e-01 -3.478769e-03 -9.491418e-02 -6.669110e-01
3   1.261878689   2.770764738  -0.310936765  -0.978070013   0.408796621   0.000481652   0.428099776  -0.469672890  -0.489571023  8.198041e-01 -1.306583e-01  2.543333e-03 -5.575330e-01
4   1.051647556   2.667085489   0.163518885  -1.036401995   0.261000490  -1.228391598  -0.151547730  -0.871461733  -0.204157959  9.890401e-01 -2.511872e-02  7.665724e-02 -1.236623e-01
5   0.996924113   2.289065003   0.625799074  -0.968058825  -0.390512199  -1.315403648  -0.682231040  -1.161456648  -1.032251046  9.904633e-01 -1.546958e-02  6.245375e-02  1.218301e-01
6   1.194158344   2.004239474   1.089428543  -0.392668713   0.011656315  -0.457559147   0.817881658  -0.007370592   0.103693750  9.026385e-01  2.259444e-02  1.267131e-01  4.107030e-01
7   1.491414544   1.873806067   1.496240405  -0.302672185   0.719868337   0.117772701  -0.173244680   0.408559998   1.000406208  8.162978e-01 -5.389700e-02  1.879290e-01  5.435400e-01
8   1.999878272   1.906095681   1.767597296   0.295142296  -0.831431030  -0.592035304   0.499882680  -0.697684449  -0.498204041  6.005956e-01  3.366688e-02  1.894403e-01  7.760566e-01
9   2.326631888   2.285481914   2.035995334   0.736271322   0.418537990  -0.270569593  -0.612627083  -1.200352660   0.488856001  2.610748e-01  9.418601e-02  2.119376e-01  9.370440e-01
10   2.519322818   2.747200049   2.277868226  -0.434759474   0.883507832   0.201566424  -0.097097564   0.395372957   0.648138339 -1.291154e-01  1.031689e-01  2.386518e-01  9.569382e-01
11   2.422978299   3.145626350   2.594283901   0.320226514  -0.936939200   0.524615008   0.921599366  -1.002325470  -0.806645267 -2.923051e-01  8.926790e-02  1.554559e-01  9.393734e-01
12   2.138833072   3.556364860   2.855601658  -0.515400726  -0.857829786   0.562505616  -0.306453013   0.900751972   0.651366097  6.986786e-01 -2.021041e-01 -1.895374e-01 -6.596042e-01
13   1.971625358   2.466898619   3.315403726  -0.559723402  -0.274737691  -0.434241778  -1.000294078   0.463979346  -0.168210022  5.241268e-02  6.678098e-01  7.079672e-01 -2.237533e-01
14   1.541134607   2.315936257   2.959022347  -0.240046974  -0.975394066   0.297433370   1.055582380  -0.481351054   0.314245159  8.937686e-02  9.438436e-01  2.693019e-01 -1.692559e-01
15   1.311212070   2.568368333   2.501126214  -0.254193007  -0.441797335  -0.810555797  -0.475716910   0.143627106  -0.669921530  1.625970e-01  9.725339e-01  1.047048e-01 -1.295256e-01
16   1.132853607   2.680507361   1.987703425  -0.481553440  -0.550354613   0.492939648  -0.614889882   1.429526663   0.259138543  1.221440e-01  9.645508e-01 -2.303851e-01 -4.056170e-02
17   1.302878294   2.962260607   1.462473950   0.502302773  -0.260901092  -0.272836848  -0.556809835  -0.713960860  -1.336481974  9.549119e-02  8.380675e-01 -5.344926e-01  5.330993e-02
18   1.608867381   3.044107497   0.986337036  -0.403656139  -0.786939876  -0.103406316  -0.479122232  -0.320990856   0.764055135  8.583286e-02  6.488068e-01 -7.399337e-01  1.555011e-01
19   1.909742112   2.926805677   0.574933841  -0.256581445   0.449426613  -0.544886549   0.863693380   0.275097298  -1.085952701  1.159958e-01  5.451313e-01 -8.228534e-01  1.108560e-01
20   2.196013026   2.578722076   0.265790336  -0.540165902  -0.440191786  -0.364570320  -0.901696087  -0.489891916   0.816288423 -3.809079e-02 -2.778260e-01  9.491137e-01 -1.433349e-01
21   2.233204634   2.076188237   0.029280513   0.175861346  -0.785520477  -0.204304290  -1.103578745   0.818557150  -0.912085713 -6.099863e-02  9.953961e-02  9.719987e-01 -2.039351e-01
22   1.963013131   1.646409693  -0.308590785  -0.432842138  -0.370543682   0.345049682  -0.427707632   0.462828841   0.349510701 -1.559032e-02  4.935206e-01  8.430568e-01 -2.131890e-01
23   1.629339714   1.617772000  -0.672193953   0.388339920   0.606018946   0.175367575   0.277411951   0.346715973   0.580592665 -9.962982e-03  6.858013e-01  7.198501e-01 -1.067383e-01
24   1.187504344   1.621762476  -1.038928188  -0.325977769  -0.964691884   0.752229053   0.111233267   0.091502949  -0.289509425  8.845869e-02  9.212655e-01  3.786965e-01 -5.825366e-03
ITEM: TIMESTEP
6000
ITEM: NUMBER OF ATOMS
24
ITEM: BOX BOUNDS pp pp pp
-8.0000000000000000e+02 8.0000000000000000e+02
-8.0000000000000000e+02 8.0000000000000000e+02
-8.0000000000000000e+02 8.0000000000000000e+02
ITEM: ATOMS id x y z vx vy vz angmomx angmomy angmomz c_quat[1] c_quat[2] c_quat[3] c_quat[4]
1   2.009478931   2.547384103  -1.099486995   0.091800172   0.371763391   1.224664497  -0.439015034   0.518074157  -0.792952357 -3.646942e-01  5.435110e-02  8.389756e-02  9.257458e-01
2   1.732995149   2.853952748  -0.762895527   1.267473423   0.141952969   0.548920542  -0.600256826  -0.544325489  -0.023145884  7.343916e-01 -3.466116e-03 -9.829328e-02 -6.715619e-01
3   1.250473868   2.770901549  -0.314502943  -1.035466283  -0.142779883  -0.305059414  -0.531888743   0.984153690   0.801032155  8.199824e-01 -1.385285e-01  6.381448e-03 -5.553359e-01
4   1.043011952   2.669422029   0.154824934  -1.110335654   0.254094966  -0.222393520   0.195896083  -0.460054643  -0.929665695  9.885681e-01 -2.786318e-02  7.424445e-02 -1.282361e-01
5   0.989871071   2.287849366   0.614210825  -0.550938882  -0.263743183  -1.172110861  -0.858910656   1.638071615  -0.629475693  9.910650e-01 -2.166532e-02  6.137349e-02  1.164217e-01
6   1.187775971   2.008017317   1.087121885  -0.309223644   0.758883126  -0.100151307   0.858728786  -0.237533604  -0.276927406  9.034340e-01  3.488924e-02  1.254772e-01  4.084670e-01