24
Atoms. Timestep: 0
3 2.00532 2.5391 -1.1362
2 1.69781 2.86231 -0.753741
3 1.3102 2.75414 -0.315674
2 1.08055 2.6552 0.189475
4 0.999953 2.2819 0.650399
4 1.18814 1.97916 1.10375
1 1.51794 1.86085 1.49496
1 1.99269 1.92275 1.78902
3 2.32497 2.25507 2.03022
2 2.55021 2.74788 2.27113
3 2.42219 3.17611 2.57777
2 2.15126 3.5713 2.86068
3 1.98102 2.47499 3.32611
2 1.51936 2.34765 2.98283
3 1.30175 2.5622 2.49365
2 1.15434 2.70128 1.96599
4 1.29055 2.96828 1.46028
4 1.61898 3.07663 0.988436
1 1.94485 2.91799 0.59152
1 2.20605 2.58331 0.275378
3 2.21097 2.10502 0.0199684
2 1.97373 1.67198 -0.309147
3 1.62259 1.58931 -0.687747
2 1.1894 1.6238 -1.05731
24
Atoms. Timestep: 1000
3 2.0055 2.53866 -1.13525
2 1.69781 2.86195 -0.755172
3 1.30824 2.75674 -0.31613
2 1.07973 2.65473 0.190514
4 0.999598 2.28407 0.649888
4 1.18923 1.98003 1.10307
1 1.51715 1.86087 1.49501
1 1.99253 1.92291 1.78907
3 2.32436 2.25643 2.03126
2 2.54856 2.74809 2.27072
3 2.42152 3.17493 2.578
2 2.15234 3.57159 2.85994
3 1.9803 2.47557 3.3262
2 1.52077 2.34649 2.98242
3 1.30335 2.56142 2.49518
2 1.1539 2.70015 1.9668
4 1.29063 2.96841 1.46171
4 1.61863 3.07596 0.988976
1 1.9436 2.91716 0.589943
1 2.20615 2.58198 0.275295
3 2.21077 2.10431 0.0204459
2 1.97365 1.67068 -0.309549
3 1.62267 1.58983 -0.687696
2 1.19015 1.62384 -1.05783
24
Atoms. Timestep: 2000
3 2.00517 2.5388 -1.13331
2 1.69887 2.8615 -0.75627
3 1.30554 2.75928 -0.315098
2 1.07865 2.65519 0.190061
4 0.999945 2.28425 0.649221
4 1.19029 1.981 1.1017
1 1.51535 1.8611 1.49503
1 1.99283 1.92281 1.78761
3 2.32395 2.25931 2.03245
2 2.54623 2.74588 2.27075
3 2.4215 3.17328 2.57825
2 2.15383 3.5703 2.85855
3 1.97943 2.47512 3.32597
2 1.52422 2.34453 2.98039
3 1.30511 2.5625 2.49719
2 1.15325 2.69861 1.96824
4 1.29107 2.96901 1.46122
4 1.61755 3.07371 0.989519
1 1.94086 2.91725 0.586951
1 2.20586 2.58265 0.274427
3 2.21136 2.10205 0.0206111
2 1.97362 1.67001 -0.310086
3 1.62243 1.59076 -0.686952
2 1.18959 1.62398 -1.05709
24
Atoms. Timestep: 3000
3 2.00417 2.53913 -1.13157
2 1.70103 2.85983 -0.757611
3 1.30169 2.75914 -0.314954
2 1.07692 2.65641 0.18808
4 1.00042 2.28473 0.648404
4 1.19107 1.98332 1.09994
1 1.51244 1.86149 1.49513
1 1.99311 1.92192 1.78666
3 2.3237 2.26097 2.03269
2 2.54434 2.7445 2.27183
3 2.42095 3.17317 2.57911
2 2.15257 3.56878 2.85902
3 1.97784 2.47223 3.3243
2 1.5277 2.34313 2.97938
3 1.30614 2.56337 2.49856
2 1.15122 2.69692 1.96881
4 1.29127 2.968 1.46074
4 1.61628 3.07129 0.989787
1 1.93706 2.91858 0.585508
1 2.20543 2.58291 0.273257
3 2.21336 2.09893 0.0217314
2 1.97317 1.66947 -0.308685
3 1.62216 1.59247 -0.685256
2 1.18873 1.62398 -1.05593
24
Atoms. Timestep: 4000
3 2.0043 2.54087 -1.13056
2 1.70328 2.85743 -0.75929
3 1.29715 2.75906 -0.314443
2 1.07488 2.65694 0.184392
4 1.00082 2.28469 0.645975
4 1.1906 1.98614 1.09914
1 1.51094 1.86208 1.49587
1 1.99278 1.9204 1.78441
3 2.32476 2.26273 2.03259
2 2.54127 2.74496 2.272
3 2.42137 3.17138 2.58104
2 2.15039 3.56653 2.85895
3 1.97675 2.47113 3.32294
2 1.52971 2.34163 2.97709
3 1.30522 2.5639 2.49762
2 1.14961 2.69649 1.97151
4 1.29304 2.96665 1.46084
4 1.6152 3.0689 0.990033
1 1.93574 2.91893 0.586164
1 2.20518 2.5827 0.272822
3 2.21624 2.09687 0.022263
2 1.97226 1.66784 -0.308005
3 1.6225 1.59486 -0.683454
2 1.18956 1.62491 -1.0545
24
Atoms. Timestep: 5000
3 2.00433 2.54355 -1.12798
2 1.70669 2.85544 -0.760191
3 1.29359 2.75938 -0.313478
2 1.07222 2.65768 0.180623
4 0.999505 2.28389 0.642632
4 1.18987 1.98742 1.09822
1 1.51081 1.86457 1.49564
1 1.99424 1.91807 1.78234
3 2.32669 2.26497 2.03153
2 2.53901 2.74584 2.2722
3 2.42182 3.16956 2.58313
2 2.14828 3.56428 2.85871
3 1.97401 2.47055 3.32207
2 1.53058 2.3405 2.97747
3 1.30371 2.5644 2.49514
2 1.14859 2.696 1.97337
4 1.29482 2.96634 1.4613
4 1.61523 3.06626 0.989191
1 1.93509 2.92032 0.586101
1 2.20262 2.58166 0.272878
3 2.21782 2.09548 0.0225864
2 1.97095 1.66652 -0.307112
3 1.62326 1.59718 -0.683024
2 1.18992 1.6239 -1.05136
24
Atoms. Timestep: 6000
3 2.00463 2.54548 -1.12442
2 1.71112 2.85492 -0.759487
3 1.28953 2.7595 -0.314331
2 1.06972 2.65801 0.177663
4 0.997526 2.28347 0.639018
4 1.18792 1.98879 1.09713
1 1.51099 1.86665 1.49551
1 1.99355 1.91557 1.78043
3 2.32854 2.26668 2.03133
2 2.53745 2.74774 2.27263
3 2.42257 3.16756 2.58537
2 2.14799 3.56023 2.86067
3 1.97266 2.46919 3.32117
2 1.53222 2.33843 2.97987
3 1.30385 2.56305 2.49228
2 1.14754 2.69541 1.9741
4 1.29596 2.96618 1.46128
4 1.61494 3.06473 0.991336
1 1.9345 2.92119 0.585462
1 2.20025 2.58025 0.272506
3 2.21844 2.09309 0.0214211
2 1.96991 1.6665 -0.306163
3 1.62271 1.59998 -0.682913
2 1.1899 1.62111 -1.05064
24
Atoms. Timestep: 7000
3 2.00595 2.54722 -1.12157
2 1.71541 2.85504 -0.759386
3 1.28563 2.75911 -0.315392
2 1.06683 2.65884 0.175688
4 0.995394 2.28354 0.635468
4 1.18647 1.99163 1.0964
1 1.51089 1.8682 1.49466
1 1.99535 1.91173 1.77962
3 2.33005 2.26707 2.03142
2 2.53478 2.74988 2.27171
3 2.42303 3.16625 2.58762
2 2.14862 3.55604 2.86314
3 1.97335 2.46838 3.32041
2 1.53491 2.33712 2.98194
3 1.30494 2.56173 2.49076
2 1.14571 2.69435 1.97512
4 1.29648 2.96526 1.46337
4 1.61582 3.06425 0.994295
1 1.93502 2.92113 0.585799
1 2.19872 2.57977 0.271828
3 2.21718 2.09123 0.0200777
2 1.97007 1.6676 -0.304609
3 1.62025 1.60085 -0.683754
2 1.19017 1.61978 -1.05148
24
Atoms. Timestep: 8000
3 2.00724 2.5486 -1.12051
2 1.71913 2.85572 -0.759307
3 1.28246 2.75865 -0.31552
2 1.06486 2.66071 0.172927
4 0.993345 2.28289 0.630919
4 1.18589 1.99361 1.09579
1 1.51172 1.86841 1.49465
1 1.99607 1.9079 1.77921
3 2.33147 2.26717 2.03277
2 2.53225 2.75059 2.27016
3 2.4226 3.16541 2.59141
2 2.14835 3.55394 2.86647
3 1.97254 2.46745 3.31987
2 1.53723 2.33617 2.98376
3 1.30602 2.55906 2.49014
2 1.14454 2.69094 1.97527
4 1.29814 2.96303 1.46471
4 1.61778 3.06337 0.997136
1 1.93783 2.92189 0.585686
1 2.19715 2.57925 0.271355
3 2.21476 2.08986 0.0186846
2 1.97075 1.66879 -0.302936
3 1.61927 1.59927 -0.684547
2 1.19026 1.61835 -1.05202
24
Atoms. Timestep: 9000
3 2.00697 2.54847 -1.12
2 1.72211 2.85715 -0.759243
3 1.28013 2.75835 -0.315619
2 1.06438 2.66436 0.170697
4 0.991296 2.28365 0.629174
4 1.18505 1.9934 1.0946
1 1.51139 1.86818 1.49658
1 1.9948 1.90554 1.77922
3 2.33186 2.26621 2.03336
2 2.5314 2.7507 2.26783
3 2.42154 3.16434 2.59478
2 2.14686 3.55361 2.87038
3 1.97192 2.46672 3.32041
2 1.53839 2.33495 2.98517
3 1.30748 2.55755 2.49081
2 1.1437 2.68949 1.9747
4 1.29884 2.96291 1.46676
4 1.61997 3.0644 0.999607
1 1.93987 2.92128 0.586229
1 2.19631 2.57905 0.271979
3 2.21368 2.08747 0.0175912
2 1.9694 1.67081 -0.302119
3 1.61848 1.59833 -0.683754
2 1.1917 1.61673 -1.05187
24
Atoms. Timestep: 10000
3 2.00679 2.54626 -1.11899
2 1.72462 2.86046 -0.758787
3 1.27838 2.75634 -0.315966
2 1.06195 2.66724 0.168465
4 0.990703 2.2845 0.629268
4 1.1836 1.99367 1.09308
1 1.51154 1.86855 1.49618
1 1.99327 1.90493 1.77889
3 2.33087 2.26464 2.03274
2 2.53173 2.75092 2.26617
3 2.42044 3.16472 2.59759
2 2.14602 3.55355 2.87397
3 1.96857 2.467 3.32159
2 1.53887 2.33324 2.98585
3 1.3084 2.55696 2.49356
2 1.14296 2.68778 1.97406
4 1.29984 2.96302 1.46822
4 1.62236 3.06635 1.00262
1 1.93977 2.91911 0.586668
1 2.19476 2.57788 0.272459
3 2.21352 2.08318 0.0157593
2 1.96886 1.67209 -0.303662
3 1.61739 1.59574 -0.681965
2 1.1921 1.61553 -1.05059
24
Atoms. Timestep: 11000
3 2.00814 2.54583 -1.11923
2 1.72686 2.86232 -0.757287
3 1.27818 2.75489 -0.317814
2 1.06042 2.66927 0.167326
4 0.988957 2.28613 0.627528
4 1.18157 1.99494 1.09103
1 1.51134 1.86832 1.49662
1 1.99091 1.90564 1.77822
3 2.33213 2.26342 2.03094
2 2.53166 2.75208 2.26544
3 2.41959 3.16517 2.59745
2 2.14618 3.5532 2.8762
3 1.9651 2.46716 3.32267
2 1.54071 2.3316 2.98632
3 1.3085 2.55723 2.49519
2 1.14266 2.68531 1.97247
4 1.30112 2.96222 1.47041
4 1.6258 3.06903 1.00588
1 1.93848 2.91782 0.585969
1 2.19224 2.57696 0.274682
3 2.21381 2.08168 0.0132932
2 1.96958 1.67275 -0.304404
3 1.61704 1.59329 -0.681389
2 1.19263 1.61536 -1.04912
24
Atoms. Timestep: 12000
3 2.00958 2.54714 -1.11985
2 1.72974 2.86227 -0.755246
3 1.27875 2.75344 -0.318195
2 1.06028 2.66915 0.167098
4 0.98901 2.28747 0.625212
4 1.18162 1.998 1.08993
1 1.51139 1.86803 1.49669
1 1.98884 1.90505 1.77877
3 2.33567 2.26197 2.02817
2 2.53257 2.75251 2.26441
3 2.41725 3.164 2.59789
2 2.14672 3.55254 2.87793
3 1.96285 2.46729 3.3234
2 1.54449 2.33043 2.98722
3 1.30919 2.55827 2.49614
2 1.14271 2.68263 1.97078
4 1.30178 2.96042 1.47224
4 1.62863 3.07149 1.0075
1 1.93655 2.91824 0.586714
1 2.19102 2.57608 0.275126
3 2.2135 2.08231 0.00913917
2 1.96929 1.67529 -0.304307
3 1.61572 1.59241 -0.681873
2 1.19359 1.61407 -1.04682
24
Atoms. Timestep: 13000
3 2.01177 2.54845 -1.12057
2 1.7323 2.86121 -0.753295
3 1.2799 2.75185 -0.317883
2 1.05969 2.66723 0.165954
4 0.988793 2.28801 0.62241
4 1.18225 2.00036 1.08976
1 1.51046 1.86861 1.49632
1 1.98817 1.90617 1.77983
3 2.33893 2.26278 2.02577
2 2.53299 2.75314 2.26252
3 2.41466 3.16366 2.59748
2 2.14782 3.55184 2.8808
3 1.96204 2.46681 3.3244
2 1.54945 2.32826 2.98617
3 1.31214 2.56033 2.49804
2 1.14474 2.68125 1.96982
4 1.30123 2.95959 1.47441
4 1.63122 3.07488 1.00949
1 1.93592 2.91892 0.587456
1 2.18881 2.57586 0.275023
3 2.21369 2.08276 0.00511774
2 1.96994 1.67909 -0.305311
3 1.61385 1.59212 -0.683125
2 1.19657 1.6138 -1.04393
24
Atoms. Timestep: 14000
3 2.01452 2.54996 -1.12009
2 1.73417 2.85963 -0.750991
3 1.28158 2.75112 -0.319258
2 1.05987 2.66542 0.166162
4 0.988141 2.28775 0.618914
4 1.18293 2.00267 1.09025
1 1.50914 1.86952 1.49619
1 1.98723 1.90775 1.78155
3 2.34084 2.26356 2.02557
2 2.53223 2.75438 2.26256
3 2.41344 3.16169 2.59579
2 2.14785 3.54968 2.88506
3 1.96116 2.46511 3.32348
2 1.55297 2.3289 2.98398
3 1.31413 2.56207 2.50045
2 1.14627 2.68087 1.97033
4 1.30117 2.96023 1.47517
4 1.63165 3.07859 1.01312
1 1.9368 2.92136 0.588027
1 2.1857 2.57481 0.276549
3 2.2126 2.08199 0.000622391
2 1.96916 1.68318 -0.305571
3 1.6134 1.59101 -0.682111
2 1.1985 1.61287 -1.04118
24
Atoms. Timestep: 15000
3 2.01644 2.55057 -1.12045
2 1.7352 2.85899 -0.75012
3 1.28076 2.75087 -0.320115
2 1.06053 2.66279 0.166313
4 0.986849 2.2881 0.615447
4 1.18351 2.00266 1.08893
1 1.50797 1.87068 1.49633
1 1.98725 1.90906 1.78281
3 2.34231 2.26434 2.02561
2 2.53081 2.75463 2.26296
3 2.41227 3.16056 2.59394
2 2.14721 3.54769 2.88959
3 1.96042 2.4627 3.32312
2 1.55695 2.32862 2.98397
3 1.31565 2.56192 2.50094
2 1.14828 2.68053 1.9699
4 1.2999 2.96058 1.47583
4 1.63141 3.08173 1.01713
1 1.93794 2.92581 0.589682
1 2.18281 2.57311 0.279196
3 2.21089 2.08157 -0.00383793
2 1.97018 1.68619 -0.305456
3 1.61264 1.58878 -0.681823
2 1.20055 1.61185 -1.03802
24
Atoms. Timestep: 16000
3 2.01623 2.55016 -1.12052
2 1.73816 2.85777 -0.749804
3 1.27799 2.75087 -0.319011
2 1.0608 2.66038 0.165838
4 0.986084 2.28831 0.613055
4 1.18429 1.99978 1.08757
1 1.50914 1.87101 1.49758
1 1.9858 1.90878 1.78498
3 2.34588 2.26371 2.02609
2 2.52868 2.75453 2.26194
3 2.41005 3.1587 2.59367
2 2.1478 3.54632 2.89277
3 1.95819 2.46076 3.32352
2 1.5611 2.32938 2.98468
3 1.31728 2.56073 2.50007
2 1.1505 2.6804 1.96989
4 1.29836 2.95976 1.4756
4 1.62942 3.08411 1.02019
1 1.93846 2.93014 0.592424
1 2.1813 2.57235 0.282141
3 2.21177 2.08265 -0.0072473
2 1.97224 1.689 -0.304756
3 1.61111 1.588 -0.682351
2 1.20242 1.61135 -1.03548
24
Atoms. Timestep: 17000
3 2.01708 2.55008 -1.1223
2 1.74126 2.85676 -0.748445
3 1.27552 2.74925 -0.318319
2 1.06071 2.65833 0.164655
4 0.986088 2.28741 0.611925
4 1.18579 1.99674 1.08783
1 1.51129 1.87034 1.50013
1 1.98316 1.90662 1.78503
3 2.34859 2.26276 2.02701
2 2.52781 2.75562 2.26048
3 2.4091 3.15691 2.59368
2 2.14785 3.5438 2.89392
3 1.95597 2.45885 3.32559
2 1.56459 2.33116 2.98606
3 1.32003 2.55945 2.49981
2 1.15329 2.68171 1.9724
4 1.2962 2.95795 1.47503
4 1.62564 3.08502 1.02283
1 1.93804 2.93581 0.595456
1 2.18065 2.57378 0.284874
3 2.21289 2.08403 -0.0109582
2 1.97452 1.69126 -0.304064
3 1.61026 1.5866 -0.681706
2 1.20319 1.61157 -1.0335
24
Atoms. Timestep: 18000
3 2.01918 2.55133 -1.12489
2 1.74449 2.85347 -0.747047
3 1.27291 2.74563 -0.319069
2 1.06099 2.65636 0.161245
4 0.9862 2.28703 0.610099
4 1.18678 1.99439 1.08755
1 1.51203 1.87146 1.50229
1 1.97989 1.90494 1.78603
3 2.35036 2.2617 2.02799
2 2.52549 2.75737 2.26106
3 2.40843 3.1547 2.59309
2 2.14643 3.5405 2.89363
3 1.95411 2.45692 3.32832
2 1.5654 2.33367 2.98708
3 1.32233 2.55858 2.50129
2 1.15676 2.6825 1.97267
4 1.2956 2.9558 1.47443
4 1.62326 3.08343 1.02547
1 1.93771 2.94034 0.599312
1 2.17873 2.57613 0.287678
3 2.21458 2.08492 -0.0153839
2 1.97705 1.69399 -0.30441
3 1.60835 1.58673 -0.680488
2 1.20282 1.61273 -1.03179
24
Atoms. Timestep: 19000
3 2.02101 2.5528 -1.12873
2 1.74656 2.85079 -0.744405
3 1.2712 2.74294 -0.321773
2 1.06124 2.65734 0.15821
4 0.986676 2.28627 0.610444
4 1.18946 1.99215 1.08733
1 1.51098 1.87405 1.50339
1 1.97728 1.90341 1.78634
3 2.35255 2.26132 2.02975
2 2.52271 2.7611 2.26155
3 2.40713 3.15305 2.59238
2 2.14507 3.53871 2.89333
3 1.95386 2.45524 3.33109
2 1.56616 2.33516 2.98827
3 1.3245 2.55999 2.50145
2 1.1611 2.68288 1.97404
4 1.29598 2.95335 1.47449
4 1.62072 3.08154 1.02791
1 1.93793 2.94335 0.602058
1 2.17581 2.58009 0.289143
3 2.21569 2.08617 -0.0188686
2 1.98004 1.6964 -0.304874
3 1.60739 1.58585 -0.679183
2 1.20407 1.6147 -1.03031
24
Atoms. Timestep: 20000
3 2.02171 2.55303 -1.13296
2 1.74607 2.84893 -0.739967
3 1.27001 2.74146 -0.323012
2 1.0613 2.65736 0.156161
4 0.988983 2.28532 0.609751
4 1.19234 1.99156 1.0862
1 1.50968 1.87621 1.50482
1 1.97395 1.9039 1.78602
3 2.35369 2.26106 2.03107
2 2.52098 2.76353 2.26118
3 2.40549 3.15116 2.59334
2 2.14484 3.5381 2.89392
3 1.95531 2.45319 3.3331
2 1.56629 2.3351 2.99036
3 1.32634 2.55928 2.50161
2 1.16457 2.68413 1.97538
4 1.29747 2.95151 1.47513
4 1.61888 3.08077 1.0297
1 1.93902 2.94466 0.604349
1 2.1742 2.58293 0.289375
3 2.21733 2.08702 -0.0197519
2 1.98263 1.69943 -0.304538
3 1.60692 1.58574 -0.67826
2 1.20508 1.61586 -1.02828
24
Atoms. Timestep: 21000
3 2.02355 2.55401 -1.13579
2 1.74343 2.84626 -0.735281
3 1.2683 2.7397 -0.323077
2 1.06203 2.65787 0.15468
4 0.990286 2.28669 0.60927
4 1.19353 1.99214 1.08412
1 1.51009 1.87753 1.50748
1 1.97103 1.9049 1.78727
3 2.35433 2.26046 2.03224
2 2.51916 2.76523 2.26085
3 2.40423 3.15075 2.59457
2 2.14452 3.53845 2.89424
3 1.95576 2.45195 3.33264
2 1.56707 2.33557 2.99322
3 1.32761 2.55818 2.50117
2 1.16726 2.68505 1.97793
4 1.29814 2.95065 1.47785
4 1.61805 3.08042 1.03268
1 1.93967 2.94523 0.605242
1 2.17417 2.58526 0.287242
3 2.21988 2.08774 -0.0203589
2 1.98571 1.7015 -0.303951
3 1.60739 1.58589 -0.677766
2 1.20642 1.61472 -1.02732
24
Atoms. Timestep: 22000
3 2.02518 2.556 -1.13895
2 1.74201 2.84376 -0.731309
3 1.2668 2.73836 -0.322102
2 1.06096 2.65663 0.155012
4 0.991874 2.28823 0.609025
4 1.19489 1.99407 1.08239
1 1.50972 1.87885 1.50908
1 1.96933 1.90713 1.78789
3 2.35383 2.25979 2.03117
2 2.51827 2.76453 2.25961
3 2.40174 3.15117 2.59328
2 2.14314 3.53826 2.89502
3 1.95575 2.44955 3.33163
2 1.56735 2.33606 2.99586
3 1.32832 2.55795 2.50097
2 1.17 2.68485 1.98027
4 1.29945 2.94884 1.4805
4 1.61677 3.07975 1.03441
1 1.94053 2.94549 0.605884
1 2.17473 2.58872 0.285628
3 2.22142 2.08809 -0.0202404
2 1.98634 1.70315 -0.303234
3 1.60705 1.58465 -0.676509
2 1.2089 1.61434 -1.02708
24
Atoms. Timestep: 23000
3 2.0264 2.55926 -1.14122
2 1.74098 2.84184 -0.728422
3 1.26647 2.73817 -0.320209
2 1.0605 2.65284 0.156408
4 0.992463 2.28843 0.612283
4 1.19752 1.9973 1.08006
1 1.50979 1.87905 1.51038
1 1.96909 1.90828 1.78749
3 2.35321 2.25905 2.0304
2 2.51597 2.76217 2.25908
3 2.39938 3.15183 2.59362
2 2.14289 3.53727 2.89506
3 1.95574 2.4465 3.33102
2 1.56833 2.33616 2.99763
3 1.32878 2.55766 2.49892
2 1.1736 2.68389 1.98282
4 1.30161 2.94763 1.4823
4 1.61538 3.07797 1.03569
1 1.94218 2.94777 0.60779
1 2.17553 2.59176 0.285084
3 2.22337 2.08792 -0.0196838
2 1.98682 1.70415 -0.303713
3 1.60508 1.5828 -0.675695
2 1.21093 1.61331 -1.0275
24
Atoms. Timestep: 24000
3 2.02646 2.56355 -1.14286
2 1.74017 2.83804 -0.727789
3 1.2663 2.7367 -0.318252
2 1.06105 2.64912 0.157826
4 0.992275 2.28727 0.614415
4 1.20042 2.00118 1.07898
1 1.51019 1.87815 1.51123
1 1.96842 1.90934 1.78627
3 2.35523 2.25901 2.02976
2 2.51507 2.7601 2.25959
3 2.39902 3.15316 2.59491
2 2.14304 3.53631 2.89347
3 1.95691 2.44431 3.33159
2 1.56964 2.33567 2.99965
3 1.32967 2.55892 2.49749
2 1.17486 2.68473 1.98528
4 1.30436 2.94722 1.48241
4 1.61377 3.07537 1.03652
1 1.94578 2.9493 0.609363
1 2.17556 2.59198 0.28536
3 2.22596 2.08725 -0.0193804
2 1.98593 1.70441 -0.304886
3 1.60462 1.58206 -0.673332
2 1.21299 1.61176 -1.02695
24
Atoms. Timestep: 25000
3 2.02776 2.56759 -1.14184
2 1.74056 2.83428 -0.72852
3 1.26462 2.73447 -0.317348
2 1.06066 2.64723 0.159011
4 0.994041 2.28689 0.614606
4 1.20197 2.00479 1.07964
1 1.5103 1.87789 1.51335
1 1.96875 1.91277 1.78502
3 2.35681 2.25999 2.02802
2 2.51461 2.75869 2.26157
3 2.39854 3.15275 2.59607
2 2.14341 3.53582 2.89181
3 1.95657 2.444 3.33298
2 1.57103 2.33731 3.00112
3 1.33035 2.56135 2.49574
2 1.17586 2.68658 1.98923
4 1.30686 2.9465 1.48124
4 1.61384 3.07343 1.03591
1 1.94887 2.95222 0.609547
1 2.174 2.59123 0.285629
3 2.22795 2.0881 -0.0188763
2 1.98581 1.70445 -0.304745
3 1.60359 1.58065 -0.670967
2 1.21335 1.60989 -1.02738
24
Atoms. Timestep: 26000
3 2.02816 2.57044 -1.14271
2 1.74123 2.83158 -0.73083
3 1.26184 2.73223 -0.31553
2 1.05966 2.64652 0.158953
4 0.998586 2.28646 0.61395
4 1.20245 2.00828 1.08019
1 1.51001 1.87795 1.51358
1 1.96971 1.91718 1.78501
3 2.35673 2.26126 2.02763
2 2.51348 2.75783 2.26428
3 2.39707 3.15462 2.5957
2 2.14281 3.53721 2.89186
3 1.95554 2.44416 3.33377
2 1.57246 2.33945 3.00295
3 1.33141 2.56282 2.49424
2 1.17653 2.68886 1.98947
4 1.30953 2.94555 1.4797
4 1.61572 3.07128 1.03505
1 1.94912 2.95328 0.609208
1 2.17274 2.58994 0.285863
3 2.23037 2.08871 -0.0190179
2 1.98611 1.70699 -0.303432
3 1.60276 1.58088 -0.668538
2 1.21245 1.60878 -1.0283
24
Atoms. Timestep: 27000
3 2.02872 2.57208 -1.1446
2 1.74166 2.82989 -0.73351
3 1.25895 2.73157 -0.314593
2 1.05885 2.64647 0.159135
4 1.00094 2.28536 0.613792
4 1.2028 2.01073 1.08051
1 1.51035 1.87765 1.51443
1 1.97019 1.92184 1.7846
3 2.35637 2.26024 2.02699
2 2.51291 2.75731 2.26623
3 2.3962 3.15621 2.5937
2 2.14196 3.53908 2.89122
3 1.95401 2.44459 3.3343
2 1.57373 2.33998 3.00454
3 1.33217 2.56356 2.49467
2 1.17921 2.6918 1.99041
4 1.31337 2.94416 1.48011
4 1.61608 3.06901 1.03498
1 1.94715 2.9537 0.609936
1 2.17165 2.59003 0.286188
3 2.23235 2.09 -0.0185805
2 1.98638 1.70933 -0.3018
3 1.60048 1.58177 -0.666789
2 1.21121 1.60879 -1.03057
24
Atoms. Timestep: 28000
3 2.02866 2.57288 -1.14567
2 1.74227 2.82741 -0.735686
3 1.25848 2.73176 -0.314344
2 1.0578 2.6455 0.160249
4 1.00123 2.28582 0.613059
4 1.20174 2.01119 1.08194
1 1.51171 1.8773 1.51481
1 1.96942 1.92601 1.78262
3 2.35792 2.25769 2.02631
2 2.51172 2.75774 2.26676
3 2.39641 3.15881 2.59021
2 2.14164 3.54013 2.8902
3 1.95424 2.44433 3.33429
2 1.57371 2.34056 3.00479
3 1.33244 2.56379 2.49586
2 1.18173 2.69422 1.99162
4 1.31727 2.9426 1.48032
4 1.61671 3.06786 1.03521
1 1.94733 2.95414 0.611214
1 2.1721 2.59013 0.285785
3 2.23453 2.08956 -0.0177092
2 1.98695 1.71139 -0.301027
3 1.59915 1.58388 -0.665506
2 1.21051 1.6095 -1.03205
24
Atoms. Timestep: 29000
3 2.0299 2.57426 -1.14462
2 1.74234 2.82502 -0.736777
3 1.25816 2.73209 -0.315074
2 1.05825 2.64307 0.160074
4 1.00205 2.28549 0.613709
4 1.20197 2.01122 1.08354
1 1.51386 1.88012 1.51551
1 1.96869 1.93039 1.78163
3 2.35972 2.25519 2.02543
2 2.51003 2.75764 2.26535
3 2.39648 3.16211 2.58793
2 2.14122 3.54207 2.89001
3 1.95619 2.44352 3.33532
2 1.5731 2.34214 3.00474
3 1.33219 2.56318 2.49676
2 1.1846 2.69681 1.99321
4 1.32208 2.9418 1.4801
4 1.61825 3.06821 1.03314
1 1.94805 2.95446 0.613545
1 2.1727 2.59033 0.285798
3 2.23659 2.08858 -0.0165103
2 1.98921 1.71419 -0.300716
3 1.5959 1.58494 -0.664494
2 1.2111 1.6094 -1.03568
24
Atoms. Timestep: 30000
3 2.03216 2.57502 -1.14314
2 1.74258 2.82303 -0.738447
3 1.25731 2.73184 -0.314829
2 1.05974 2.6408 0.158641
4 1.00439 2.28555 0.613897
4 1.20133 2.01103 1.08423
1 1.5142 1.88349 1.517
1 1.96808 1.9337 1.78024
3 2.36005 2.25312 2.02601
2 2.51058 2.7571 2.26352
3 2.39849 3.16392 2.58629
2 2.14127 3.54364 2.89009
3 1.9582 2.44355 3.33566
2 1.57394 2.34399 3.00503
3 1.33063 2.56237 2.49808
2 1.1876 2.69989 1.99476
4 1.32452 2.9406 1.47913
4 1.61901 3.0681 1.03261
1 1.94896 2.95521 0.616371
1 2.1732 2.59118 0.285748
3 2.23654 2.0882 -0.0171029
2 1.99096 1.71429 -0.299252
3 1.59182 1.58634 -0.663421
2 1.21183 1.60979 -1.03892
24
Atoms. Timestep: 31000
3 2.03361 2.57593 -1.14223
2 1.74266 2.82055 -0.739898
3 1.25637 2.73124 -0.314503
2 1.06025 2.63847 0.158676
4 1.00551 2.28442 0.613933
4 1.20145 2.01054 1.08403
1 1.51469 1.88617 1.51779
1 1.96751 1.93685 1.7783
3 2.3605 2.25055 2.0271
2 2.50949 2.75657 2.26328
3 2.40152 3.16465 2.58495
2 2.14007 3.54543 2.88987
3 1.95928 2.44354 3.33741
2 1.5754 2.34711 3.00643
3 1.32929 2.56061 2.49917
2 1.1886 2.70362 1.995
4 1.32729 2.93861 1.47883
4 1.61947 3.06755 1.03292
1 1.95124 2.95671 0.618633
1 2.17464 2.58993 0.286153
3 2.23543 2.08864 -0.0164203
2 1.99242 1.71202 -0.298573
3 1.58857 1.58718 -0.661664
2 1.21148 1.60957 -1.0413
24
Atoms. Timestep: 32000
3 2.0348 2.57631 -1.14104
2 1.74406 2.8175 -0.740249
3 1.25479 2.73166 -0.313626
2 1.05845 2.63706 0.159043
4 1.00536 2.28359 0.614199
4 1.20137 2.01087 1.08172
1 1.51415 1.88777 1.51941
1 1.96821 1.93776 1.77571
3 2.3611 2.24827 2.02516
2 2.50968 2.75489 2.2643
3 2.403 3.16485 2.58402
2 2.13998 3.54582 2.88958
3 1.96 2.44391 3.34039
2 1.57519 2.35098 3.00898
3 1.3275 2.55817 2.50078
2 1.18792 2.7066 1.99538
4 1.32893 2.93575 1.47953
4 1.61865 3.06535 1.03447
1 1.953 2.95738 0.619293
1 2.17559 2.58862 0.286239
3 2.23298 2.08869 -0.0148996
2 1.9915 1.70863 -0.297203
3 1.58508 1.58661 -0.661644
2 1.21196 1.61155 -1.043
24
Atoms. Timestep: 33000
3 2.03549 2.57713 -1.13793
2 1.74364 2.81312 -0.739013
3 1.25429 2.73353 -0.311214
2 1.05573 2.637 0.158042
4 1.00484 2.28437 0.615602
4 1.20038 2.01111 1.07876
1 1.51326 1.88695 1.52266
1 1.96971 1.93884 1.77343
3 2.36266 2.24769 2.02362
2 2.51099 2.75354 2.26566
3 2.40469 3.16583 2.58418
2 2.14045 3.54482 2.8893
3 1.96039 2.44561 3.34299
2 1.57512 2.35491 3.01006
3 1.32491 2.55618 2.50284
2 1.18533 2.70839 1.99468
4 1.32948 2.9332 1.48084
4 1.61659 3.06288 1.03572
1 1.95383 2.95631 0.620641
1 2.17602 2.58825 0.28661
3 2.22872 2.08862 -0.0128501
2 1.99056 1.70648 -0.29645
3 1.58263 1.58682 -0.662246
2 1.21241 1.61295 -1.04427
24
Atoms. Timestep: 34000
3 2.03506 2.57864 -1.13604
2 1.74352 2.81131 -0.736913
3 1.25363 2.7357 -0.309562
2 1.05302 2.63903 0.155597
4 1.00428 2.28347 0.617341
4 1.19901 2.01069 1.07695
1 1.51091 1.88507 1.52786
1 1.97284 1.93892 1.7711
3 2.36229 2.24918 2.02192
2 2.5111 2.75189 2.26651
3 2.40656 3.16774 2.58573
2 2.14117 3.54553 2.88862
3 1.96059 2.44743 3.34441
2 1.57441 2.35748 3.01111
3 1.32212 2.55672 2.50437
2 1.18292 2.70931 1.99469
4 1.32703 2.93015 1.48122
4 1.61442 3.06146 1.03731
1 1.95462 2.95475 0.622114
1 2.17526 2.5874 0.286937
3 2.22414 2.08888 -0.012202
2 1.98963 1.70553 -0.29597
3 1.58069 1.58698 -0.660895
2 1.2125 1.61436 -1.04532
24
Atoms. Timestep: 35000
3 2.03583 2.58065 -1.13405
2 1.74287 2.81031 -0.733966
3 1.25309 2.73797 -0.308618
2 1.05174 2.64099 0.153223
4 1.00398 2.2829 0.618502
4 1.19722 2.01055 1.07643
1 1.50805 1.88371 1.53285
1 1.97543 1.93828 1.76952
3 2.36265 2.24913 2.02122
2 2.51115 2.74989 2.26763
3 2.40725 3.16931 2.5875
2 2.14194 3.54787 2.8881
3 1.96088 2.44947 3.34548
2 1.57435 2.35983 3.01241
3 1.31855 2.5575 2.50525
2 1.18059 2.70937 1.99479
4 1.32401 2.92893 1.48265
4 1.61254 3.05753 1.03993
1 1.95489 2.95445 0.623915
1 2.17384 2.58581 0.287248
3 2.22049 2.08959 -0.0122253
2 1.98907 1.7056 -0.294762
3 1.57879 1.58722 -0.660438
2 1.21087 1.61574 -1.04694
24
Atoms. Timestep: 36000
3 2.0352 2.58333 -1.13169
2 1.74188 2.8093 -0.731738
3 1.25252 2.74017 -0.306939
2 1.0514 2.64102 0.15078
4 1.00305 2.28164 0.618143
4 1.19792 2.01148 1.07577
1 1.50542 1.88469 1.53598
1 1.9777 1.93877 1.76973
3 2.36097 2.25063 2.02181
2 2.51234 2.74883 2.26894
3 2.40708 3.17125 2.58852
2 2.142 3.5503 2.88743
3 1.9612 2.45185 3.34454
2 1.57415 2.36377 3.01546
3 1.31594 2.55846 2.5052
2 1.18014 2.70995 1.99241
4 1.32004 2.92698 1.4821
4 1.60906 3.0521 1.04405
1 1.95511 2.95477 0.624422
1 2.17394 2.58436 0.287882
3 2.21651 2.08905 -0.0131259
2 1.98679 1.7055 -0.292926
3 1.57636 1.58815 -0.66034
2 1.20814 1.61658 -1.04973
24
Atoms. Timestep: 37000
3 2.03554 2.5847 -1.12994
2 1.74235 2.80777 -0.730554
3 1.25264 2.74132 -0.306336
2 1.05172 2.63933 0.148642
4 1.00277 2.28122 0.617418
4 1.19987 2.01355 1.07394
1 1.50251 1.88763 1.538
1 1.97958 1.938 1.77045
3 2.35894 2.25416 2.02304
2 2.51369 2.74934 2.26895
3 2.40576 3.17346 2.58797
2 2.14189 3.55259 2.8873
3 1.96115 2.45381 3.34316
2 1.57439 2.37005 3.01799
3 1.31416 2.55836 2.50439
2 1.18076 2.71328 1.98864
4 1.31654 2.92691 1.48204
4 1.6068 3.04753 1.04701
1 1.95614 2.95533 0.625614
1 2.17475 2.58059 0.287458
3 2.21372 2.08878 -0.0129643
2 1.98386 1.70507 -0.291401
3 1.57383 1.58952 -0.660169
2 1.20531 1.61807 -1.05058
24
Atoms. Timestep: 38000
3 2.03626 2.58631 -1.12704
2 1.74338 2.80485 -0.731452
3 1.25324 2.74314 -0.306282
2 1.0521 2.6383 0.148698
4 1.00426 2.28133 0.617966
4 1.20185 2.01628 1.07234
1 1.50147 1.88923 1.54075
1 1.98253 1.9377 1.7712
3 2.35804 2.25747 2.0228
2 2.51352 2.7506 2.26763
3 2.40536 3.17691 2.58637
2 2.14212 3.55327 2.88827
3 1.96015 2.45425 3.34204
2 1.57349 2.37548 3.01891
3 1.31286 2.55896 2.50305
2 1.17955 2.71693 1.98522
4 1.314 2.92667 1.48075
4 1.60514 3.04284 1.04939
1 1.95687 2.95568 0.627329
1 2.17552 2.57942 0.287987
3 2.20996 2.08856 -0.0130307
2 1.98135 1.70375 -0.288931
3 1.57195 1.59116 -0.660452
2 1.20344 1.61878 -1.04991
24
Atoms. Timestep: 39000
3 2.03667 2.58699 -1.12392
2 1.74321 2.80038 -0.731141
3 1.25177 2.74452 -0.308476
2 1.05311 2.6359 0.147412
4 1.00441 2.28316 0.616785
4 1.20325 2.01798 1.07206
1 1.50097 1.89125 1.5423
1 1.98387 1.93793 1.77119
3 2.3568 2.25898 2.02312
2 2.51349 2.75346 2.26659
3 2.40399 3.17893 2.58411
2 2.14201 3.552 2.89004
3 1.95993 2.45417 3.34126
2 1.57235 2.37879 3.0193
3 1.31221 2.55943 2.5025
2 1.17797 2.71942 1.98225
4 1.3128 2.92791 1.47936
4 1.60268 3.03897 1.05009
1 1.95599 2.95514 0.62925
1 2.17617 2.57936 0.288195
3 2.20568 2.0897 -0.012897
2 1.97844 1.70333 -0.28654
3 1.57062 1.59403 -0.662673
2 1.20377 1.61757 -1.05041
24
Atoms. Timestep: 40000
3 2.03749 2.58856 -1.11988
2 1.74335 2.79691 -0.731783
3 1.25045 2.74463 -0.311574
2 1.05415 2.63328 0.145543
4 1.00303 2.28438 0.615107
4 1.20513 2.02149 1.07193
1 1.50181 1.89234 1.54185
1 1.98486 1.93805 1.76955
3 2.35588 2.25851 2.0257
2 2.51393 2.75592 2.26404
3 2.40356 3.18026 2.58309
2 2.14123 3.55101 2.89239
3 1.95871 2.45489 3.34095
2 1.57151 2.38185 3.02015
3 1.3124 2.55947 2.5025
2 1.17785 2.72106 1.98111
4 1.31083 2.92735 1.47915
4 1.59863 3.03627 1.04963
1 1.95525 2.95461 0.632839
1 2.1765 2.5792 0.289272
3 2.2006 2.09034 -0.0130017
2 1.97804 1.70374 -0.283906
3 1.56957 1.5973 -0.665284
2 1.20407 1.61558 -1.054
24
Atoms. Timestep: 41000
3 2.03884 2.58905 -1.11578
2 1.74352 2.79496 -0.733763
3 1.25042 2.74328 -0.315175
2 1.05334 2.63115 0.143583
4 1.00055 2.28569 0.612351
4 1.20659 2.02416 1.07346
1 1.50273 1.89221 1.54173
1 1.9868 1.93878 1.76737
3 2.35492 2.2605 2.02879
2 2.51383 2.75597 2.26201
3 2.40272 3.18 2.58405
2 2.14034 3.55031 2.89434
3 1.95855 2.45465 3.34126
2 1.57107 2.38367 3.02116
3 1.31402 2.56097 2.50148
2 1.1787 2.72273 1.98037
4 1.30913 2.92571 1.47846
4 1.59311 3.03393 1.04842
1 1.95486 2.95566 0.634844
1 2.17702 2.57926 0.28985
3 2.19645 2.09126 -0.0132739
2 1.97872 1.70338 -0.281447
3 1.56705 1.60021 -0.666236
2 1.20353 1.61384 -1.05799
24
Atoms. Timestep: 42000
3 2.04022 2.58802 -1.11179
2 1.743 2.79278 -0.735348
3 1.24953 2.74196 -0.319757
2 1.05183 2.63022 0.141056
4 0.998369 2.287 0.610144
4 1.20802 2.02636 1.07556
1 1.50213 1.89243 1.53969
1 1.98847 1.94158 1.76663
3 2.35454 2.2629 2.03182
2 2.5123 2.75611 2.26022
3 2.4023 3.18019 2.58429
2 2.13947 3.5495 2.8954
3 1.95853 2.45261 3.34304
2 1.57016 2.38463 3.02303
3 1.31561 2.56071 2.49993
2 1.18057 2.7228 1.98139
4 1.3086 2.92406 1.47714
4 1.5892 3.03104 1.04808
1 1.9542 2.95661 0.636085
1 2.17756 2.57957 0.291054
3 2.19104 2.09253 -0.0126148
2 1.97972 1.70347 -0.277565
3 1.56342 1.60185 -0.668032
2 1.20426 1.61251 -1.05924
24
Atoms. Timestep: 43000
3 2.04011 2.58683 -1.10795
2 1.74314 2.78848 -0.734022
3 1.24726 2.74064 -0.3253
2 1.05054 2.62919 0.139498
4 0.996226 2.28835 0.608584
4 1.20777 2.02886 1.07971
1 1.50191 1.89436 1.537
1 1.98906 1.94536 1.76618
3 2.35645 2.26439 2.03504
2 2.51204 2.75638 2.25719
3 2.40184 3.18156 2.58495
2 2.13858 3.54944 2.8963
3 1.95854 2.45093 3.34304
2 1.56959 2.38515 3.02617
3 1.31876 2.56019 2.49759
2 1.1842 2.72356 1.98273
4 1.30694 2.92389 1.47607
4 1.5873 3.02908 1.04942
1 1.95377 2.95809 0.635737
1 2.17696 2.57926 0.292308
3 2.18575 2.09282 -0.0111901
2 1.97926 1.70418 -0.274032
3 1.55834 1.60184 -0.669333
2 1.2054 1.61264 -1.05949
24
Atoms. Timestep: 44000
3 2.04027 2.58641 -1.10389
2 1.74628 2.78486 -0.733418
3 1.24549 2.74124 -0.331148
2 1.05045 2.62771 0.138051
4 0.994152 2.28995 0.607387
4 1.2066 2.03071 1.08129
1 1.49998 1.89485 1.5357
1 1.98953 1.94874 1.76706
3 2.35982 2.26485 2.03786
2 2.51236 2.75669 2.25631
3 2.40295 3.18428 2.58638
2 2.13833 3.55037 2.89581
3 1.9599 2.44899 3.34207
2 1.56846 2.38563 3.02875
3 1.32142 2.56085 2.49429
2 1.18787 2.72496 1.98415
4 1.30787 2.92307 1.47398
4 1.58701 3.02963 1.05172
1 1.95466 2.95797 0.636089
1 2.17635 2.57902 0.294505
3 2.18114 2.09217 -0.00939372
2 1.97986 1.70489 -0.271078
3 1.55433 1.60195 -0.670556
2 1.20749 1.61223 -1.05879
24
Atoms. Timestep: 45000
3 2.03849 2.58712 -1.09907
2 1.74893 2.7835 -0.733038
3 1.24191 2.74204 -0.334421
2 1.05093 2.62674 0.137042
4 0.992808 2.29075 0.60684
4 1.20364 2.03255 1.08109
1 1.49947 1.89578 1.53528
1 1.98966 1.95112 1.76776
3 2.36301 2.26525 2.04023
2 2.51114 2.7565 2.25459
3 2.4039 3.18721 2.58689
2 2.13774 3.55006 2.89471