24
Atoms. Timestep: 0
3 2.00532 2.5391 -1.1362
2 1.69781 2.86231 -0.753741
3 1.3102 2.75414 -0.315674
2 1.08055 2.6552 0.189475
4 0.999953 2.2819 0.650399
4 1.18814 1.97916 1.10375
1 1.51794 1.86085 1.49496
1 1.99269 1.92275 1.78902
3 2.32497 2.25507 2.03022
2 2.55021 2.74788 2.27113
3 2.42219 3.17611 2.57777
2 2.15126 3.5713 2.86068
3 1.98102 2.47499 3.32611
2 1.51936 2.34765 2.98283
3 1.30175 2.5622 2.49365
2 1.15434 2.70128 1.96599
4 1.29055 2.96828 1.46028
4 1.61898 3.07663 0.988436
1 1.94485 2.91799 0.59152
1 2.20605 2.58331 0.275378
3 2.21097 2.10502 0.0199684
2 1.97373 1.67198 -0.309147
3 1.62259 1.58931 -0.687747
2 1.1894 1.6238 -1.05731
24
Atoms. Timestep: 1000
3 2.0055 2.53867 -1.13526
2 1.69781 2.86195 -0.755152
3 1.30827 2.7567 -0.316122
2 1.07974 2.65474 0.190495
4 0.999605 2.28404 0.649897
4 1.18921 1.98001 1.10308
1 1.51716 1.86087 1.49501
1 1.99253 1.92291 1.78907
3 2.32437 2.25641 2.03124
2 2.54859 2.74809 2.27073
3 2.42153 3.17496 2.57799
2 2.15232 3.57159 2.85995
3 1.98031 2.47556 3.3262
2 1.52075 2.34651 2.98243
3 1.30332 2.56143 2.49515
2 1.15391 2.70017 1.96679
4 1.29063 2.9684 1.46168
4 1.61863 3.07597 0.988969
1 1.94362 2.91717 0.589969
1 2.20615 2.582 0.275297
3 2.21078 2.10432 0.0204376
2 1.97365 1.6707 -0.309539
3 1.62267 1.58982 -0.687697
2 1.19014 1.62384 -1.05782
24
Atoms. Timestep: 2000
3 2.00517 2.53882 -1.13335
2 1.69887 2.86149 -0.75624
3 1.3056 2.75919 -0.315104
2 1.07868 2.65519 0.190046
4 0.999948 2.28421 0.649239
4 1.19025 1.98097 1.10173
1 1.5154 1.8611 1.49503
1 1.99283 1.92281 1.78763
3 2.32397 2.25924 2.03241
2 2.54628 2.74591 2.27075
3 2.4215 3.17334 2.57825
2 2.15379 3.57031 2.85859
3 1.97943 2.47511 3.32597
2 1.52417 2.3446 2.98044
3 1.30505 2.56249 2.49712
2 1.15327 2.69866 1.96821
4 1.29107 2.969 1.4612
4 1.61757 3.07376 0.989508
1 1.94093 2.91726 0.587026
1 2.20586 2.58266 0.274445
3 2.21135 2.1021 0.0205992
2 1.97362 1.67005 -0.31006
3 1.62242 1.59074 -0.686965
2 1.18959 1.62398 -1.0571
24
Atoms. Timestep: 3000
3 2.00417 2.53916 -1.13164
2 1.701 2.85982 -0.757572
3 1.30181 2.75906 -0.314958
2 1.07698 2.65638 0.188093
4 1.00042 2.28468 0.648434
4 1.19101 1.98325 1.09999
1 1.51254 1.86148 1.49513
1 1.9931 1.92194 1.7867
3 2.32374 2.26088 2.03265
2 2.54442 2.74453 2.27181
3 2.42097 3.17325 2.57909
2 2.15256 3.5688 2.85905
3 1.97784 2.47226 3.32433
2 1.52761 2.34323 2.97946
3 1.30605 2.56335 2.49847
2 1.15128 2.69701 1.96877
4 1.29127 2.968 1.46074
4 1.61632 3.07138 0.989779
1 1.9372 2.91857 0.585605
1 2.20543 2.58291 0.273297
3 2.21332 2.09902 0.0216995
2 1.97319 1.66954 -0.308673
3 1.62216 1.59241 -0.685298
2 1.18875 1.62399 -1.05595
24
Atoms. Timestep: 4000
3 2.00429 2.5409 -1.13064
2 1.70323 2.85745 -0.759237
3 1.29734 2.75898 -0.31445
2 1.07498 2.65689 0.184461
4 1.00081 2.28464 0.646044
4 1.19055 1.98603 1.0992
1 1.51107 1.86206 1.49586
1 1.99277 1.92044 1.78449
3 2.32478 2.26261 2.03254
2 2.54138 2.74498 2.27197
3 2.42137 3.17151 2.58099
2 2.15042 3.56657 2.85898
3 1.97675 2.47116 3.32298
2 1.52962 2.34177 2.97722
3 1.30515 2.56388 2.49754
2 1.1497 2.69659 1.97143
4 1.29301 2.96667 1.46084
4 1.61525 3.06902 0.99003
1 1.93591 2.91891 0.586247
1 2.20519 2.5827 0.272872
3 2.21616 2.09699 0.0222209
2 1.97229 1.66795 -0.307992
3 1.62248 1.59475 -0.683526
2 1.18958 1.6249 -1.05454
24
Atoms. Timestep: 5000
3 2.00431 2.54355 -1.1281
2 1.70659 2.85546 -0.760139
3 1.29382 2.7593 -0.313497
2 1.07237 2.65761 0.180749
4 0.999523 2.28386 0.642755
4 1.18983 1.9873 1.09828
1 1.51096 1.8645 1.49564
1 1.9942 1.91816 1.78245
3 2.32669 2.26482 2.0315
2 2.53916 2.74583 2.27216
3 2.42181 3.16974 2.58305
2 2.14835 3.56434 2.85873
3 1.97402 2.47058 3.32212
2 1.5305 2.34068 2.97761
3 1.30366 2.56437 2.4951
2 1.1487 2.69611 1.97326
4 1.29476 2.96637 1.46129
4 1.61528 3.06643 0.989212
1 1.93527 2.92027 0.586182
1 2.20267 2.58169 0.27293
3 2.2177 2.09562 0.0225376
2 1.971 1.66666 -0.307101
3 1.62322 1.59702 -0.683103
2 1.18994 1.62391 -1.05145
24
Atoms. Timestep: 6000
3 2.00459 2.54547 -1.1246
2 1.71096 2.85493 -0.759463
3 1.28981 2.75941 -0.31433
2 1.06991 2.65793 0.17783
4 0.997582 2.28344 0.639199
4 1.18792 1.98865 1.09721
1 1.51114 1.86655 1.49551
1 1.99352 1.9157 1.78057
3 2.32852 2.26651 2.0313
2 2.5376 2.74768 2.27258
3 2.42255 3.16779 2.58526
2 2.14807 3.56034 2.86065
3 1.97267 2.46923 3.32123
2 1.53215 2.33866 2.97997
3 1.30379 2.56305 2.49228
2 1.14768 2.69554 1.97399
4 1.29589 2.96622 1.46128
4 1.61498 3.06492 0.991331
1 1.9347 2.92113 0.585552
1 2.20034 2.5803 0.272567
3 2.21831 2.09327 0.0213908
2 1.96999 1.66666 -0.306154
3 1.62267 1.59978 -0.682993
2 1.18993 1.62118 -1.05074
24
Atoms. Timestep: 7000
3 2.00588 2.5472 -1.1218
2 1.71519 2.85502 -0.759379
3 1.28596 2.75904 -0.315367
2 1.06708 2.65874 0.175881
4 0.99549 2.2835 0.635706
4 1.1865 1.99145 1.09647
1 1.51104 1.86807 1.49467
1 1.99528 1.91193 1.77977
3 2.33001 2.26689 2.03138
2 2.53496 2.74978 2.27167
3 2.42299 3.16652 2.58747
2 2.14869 3.5562 2.86309
3 1.97332 2.46842 3.32048
2 1.53482 2.3374 2.98203
3 1.30485 2.56175 2.49078
2 1.14588 2.69451 1.975
4 1.2964 2.96531 1.46334
4 1.61584 3.06444 0.994251
1 1.93522 2.92106 0.58588
1 2.19882 2.57982 0.271904
3 2.21708 2.09143 0.020069
2 1.97015 1.66777 -0.304611
3 1.62023 1.60063 -0.683819
2 1.19021 1.61987 -1.05156
24
Atoms. Timestep: 8000
3 2.00714 2.54858 -1.12076
2 1.71886 2.85566 -0.759316
3 1.28283 2.75859 -0.315488
2 1.06514 2.66056 0.173158
4 0.993479 2.28287 0.63123
4 1.18592 1.9934 1.09587
1 1.51187 1.86827 1.49467
1 1.99598 1.90817 1.77936
3 2.33142 2.26699 2.03271
2 2.53246 2.75046 2.27013
3 2.42257 3.16572 2.59119
2 2.14843 3.55412 2.86635
3 1.97251 2.46749 3.31994
2 1.53712 2.33648 2.98382
3 1.3059 2.55913 2.49016
2 1.14475 2.69116 1.97515
4 1.29804 2.96311 1.46465
4 1.61777 3.06356 0.997055
1 1.93799 2.92181 0.585767
1 2.19728 2.5793 0.271442
3 2.2147 2.09008 0.0186985
2 1.97082 1.66895 -0.302952
3 1.61927 1.59906 -0.684596
2 1.19029 1.61848 -1.05209
24
Atoms. Timestep: 9000
3 2.00687 2.54846 -1.12025
2 1.7218 2.85705 -0.759267
3 1.28053 2.75829 -0.315582
2 1.06468 2.66414 0.170958
4 0.991469 2.28361 0.629512
4 1.1851 1.9932 1.09469
1 1.51155 1.86805 1.49656
1 1.99473 1.90585 1.77937
3 2.33181 2.26605 2.03328
2 2.53161 2.75056 2.26784
3 2.42152 3.16468 2.59451
2 2.14697 3.55377 2.87019
3 1.97188 2.46676 3.32047
2 1.53829 2.3353 2.98522
3 1.30734 2.55764 2.49082
2 1.14392 2.68975 1.9746
4 1.29874 2.96299 1.46667
4 1.61992 3.06457 0.999495
1 1.94 2.9212 0.586298
1 2.19645 2.57911 0.272058
3 2.21364 2.08772 0.0176228
2 1.9695 1.67095 -0.302133
3 1.61847 1.59814 -0.683815
2 1.19172 1.61689 -1.05194
24
Atoms. Timestep: 10000
3 2.00669 2.54631 -1.11926
2 1.72428 2.86027 -0.758833
3 1.2788 2.75632 -0.315917
2 1.06229 2.66696 0.168755
4 0.990891 2.28444 0.629601
4 1.18368 1.99347 1.09318
1 1.5117 1.8684 1.49618
1 1.99322 1.90525 1.77904
3 2.33085 2.26452 2.03266
2 2.53192 2.75076 2.2662
3 2.42043 3.16507 2.59728
2 2.14616 3.5537 2.87372
3 1.96855 2.46702 3.32162
2 1.53879 2.33363 2.9859
3 1.30823 2.55707 2.49352
2 1.1432 2.68807 1.97398
4 1.29971 2.9631 1.46811
4 1.62226 3.06649 1.00246
1 1.93991 2.91907 0.586727
1 2.19492 2.57795 0.272534
3 2.21349 2.0835 0.0158213
2 1.96896 1.67223 -0.303635
3 1.61739 1.59559 -0.682053
2 1.19212 1.61572 -1.05068
24
Atoms. Timestep: 11000
3 2.00801 2.54591 -1.1195
2 1.72649 2.86208 -0.757371
3 1.27858 2.75489 -0.317731
2 1.06079 2.66894 0.167626
4 0.989178 2.28604 0.627887
4 1.18168 1.99473 1.09116
1 1.51151 1.86818 1.49661
1 1.99089 1.90596 1.77838
3 2.3321 2.26332 2.03089
2 2.53183 2.75189 2.26547
3 2.4196 3.16553 2.59714
2 2.14631 3.55333 2.87591
3 1.96512 2.46716 3.32268
2 1.54063 2.33204 2.98637
3 1.30832 2.55733 2.49512
2 1.14291 2.68566 1.97242
4 1.30098 2.96232 1.47027
4 1.62564 3.06912 1.00568
1 1.93864 2.9178 0.586038
1 2.19245 2.57705 0.274722
3 2.21377 2.08202 0.0133964
2 1.96967 1.6729 -0.30435
3 1.61704 1.59317 -0.681483
2 1.19266 1.61556 -1.04923
24
Atoms. Timestep: 12000
3 2.00942 2.54721 -1.12012
2 1.72933 2.86201 -0.755378
3 1.27913 2.75347 -0.318101
2 1.06065 2.66882 0.167394
4 0.989236 2.28736 0.625607
4 1.18173 1.99774 1.09007
1 1.51157 1.8679 1.49668
1 1.98885 1.90538 1.77893
3 2.33558 2.2619 2.02816
2 2.53272 2.7523 2.26445
3 2.41729 3.16439 2.59757
2 2.14685 3.55267 2.87761
3 1.9629 2.46728 3.3234
2 1.54437 2.3309 2.98727
3 1.309 2.55836 2.49605
2 1.14297 2.68303 1.97077
4 1.30163 2.96054 1.47207
4 1.62842 3.07153 1.00729
1 1.93676 2.91821 0.586769
1 2.19124 2.57618 0.275163
3 2.21346 2.08264 0.00931234
2 1.96939 1.67542 -0.30424
3 1.61573 1.5923 -0.681955
2 1.1936 1.6143 -1.04697
24
Atoms. Timestep: 13000
3 2.01156 2.54851 -1.12083
2 1.73185 2.86095 -0.753471
3 1.28025 2.75191 -0.317791
2 1.06006 2.66692 0.16626
4 0.989026 2.2879 0.622849
4 1.18235 2.00007 1.08989
1 1.51066 1.86846 1.49632
1 1.98819 1.90649 1.77997
3 2.3388 2.2627 2.0258
2 2.53311 2.75291 2.26259
3 2.41474 3.16407 2.59717
2 2.14794 3.55196 2.88042
3 1.96208 2.4668 3.32438
2 1.54926 2.32879 2.98625
3 1.31189 2.56039 2.49791
2 1.14497 2.68168 1.96984
4 1.3011 2.95972 1.47421
4 1.63096 3.07486 1.00925
1 1.93614 2.91888 0.587497
1 2.18906 2.57596 0.275066
3 2.21366 2.08307 0.00535883
2 1.97003 1.67916 -0.305213
3 1.61389 1.59201 -0.683183
2 1.19654 1.61404 -1.04411
24
Atoms. Timestep: 14000
3 2.01426 2.55001 -1.12036
2 1.73369 2.85937 -0.751218
3 1.28188 2.75119 -0.319139
2 1.06025 2.66513 0.166457
4 0.98839 2.28764 0.619408
4 1.18301 2.00234 1.09036
1 1.50937 1.86935 1.49619
1 1.98726 1.90804 1.78165
3 2.34068 2.26347 2.0256
2 2.53235 2.75412 2.26262
3 2.41355 3.16215 2.59551
2 2.14797 3.54982 2.88461
3 1.9612 2.46511 3.32347
2 1.55274 2.32943 2.98411
3 1.31384 2.5621 2.50028
2 1.14648 2.68132 1.97034
4 1.30105 2.96036 1.47496
4 1.63137 3.07849 1.01283
1 1.93701 2.92128 0.588057
1 2.18601 2.57492 0.27657
3 2.21259 2.08231 0.000939662
2 1.96926 1.6832 -0.305455
3 1.61343 1.59091 -0.682182
2 1.19845 1.61313 -1.04141
24
Atoms. Timestep: 15000
3 2.01614 2.55062 -1.12072
2 1.73472 2.85871 -0.750373
3 1.28107 2.75095 -0.319979
2 1.0609 2.66253 0.166596
4 0.987124 2.28797 0.615996
4 1.18358 2.00234 1.08906
1 1.50823 1.8705 1.49633
1 1.98728 1.90933 1.78289
3 2.34213 2.26424 2.02562
2 2.53093 2.75435 2.26301
3 2.41239 3.16105 2.59369
2 2.14734 3.54785 2.88906
3 1.96046 2.46273 3.32312
2 1.55667 2.32918 2.9841
3 1.31533 2.56196 2.50076
2 1.14847 2.681 1.96993
4 1.2998 2.96069 1.47561
4 1.63114 3.08157 1.01678
1 1.93814 2.92564 0.589683
1 2.18317 2.57325 0.279175
3 2.21091 2.08189 -0.00344479
2 1.97026 1.68618 -0.305328
3 1.61268 1.58872 -0.681893
2 1.20048 1.61214 -1.0383
24
Atoms. Timestep: 16000
3 2.01594 2.55023 -1.1208
2 1.73763 2.8575 -0.750073
3 1.27833 2.75095 -0.318892
2 1.06116 2.66016 0.166121
4 0.986377 2.28818 0.613641
4 1.18436 1.99951 1.08771
1 1.50939 1.87082 1.49756
1 1.98585 1.90906 1.78502
3 2.34565 2.26362 2.02609
2 2.52882 2.75425 2.262
3 2.41021 3.15924 2.59343
2 2.14793 3.54649 2.89218
3 1.95825 2.46082 3.32351
2 1.56077 2.32994 2.98481
3 1.31693 2.56078 2.49989
2 1.15065 2.68087 1.96992
4 1.2983 2.95989 1.47539
4 1.62918 3.08391 1.0198
1 1.93865 2.9299 0.592378
1 2.18167 2.5725 0.282073
3 2.21178 2.08295 -0.00679576
2 1.97229 1.68895 -0.304627
3 1.61117 1.58794 -0.682407
2 1.20232 1.61164 -1.0358
24
Atoms. Timestep: 17000
3 2.01677 2.55017 -1.12255
2 1.74068 2.85648 -0.748747
3 1.27589 2.74936 -0.31821
2 1.06107 2.65813 0.164951
4 0.986385 2.28729 0.612525
4 1.18583 1.99653 1.08795
1 1.5115 1.87016 1.50007
1 1.98325 1.90694 1.78507
3 2.34833 2.2627 2.02699
2 2.52796 2.7553 2.26055
3 2.40927 3.15748 2.59344
2 2.14798 3.544 2.89331
3 1.95605 2.45893 3.32554
2 1.56421 2.33171 2.98618
3 1.31962 2.55953 2.49964
2 1.1534 2.68218 1.9724
4 1.29618 2.95811 1.47483
4 1.62545 3.0848 1.02241
1 1.93825 2.93547 0.595357
1 2.18103 2.5739 0.284764
3 2.21288 2.0843 -0.0104429
2 1.97454 1.69119 -0.303933
3 1.61033 1.58657 -0.681767
2 1.20309 1.61187 -1.03385
24
Atoms. Timestep: 18000
3 2.01883 2.55141 -1.1251
2 1.74386 2.85324 -0.747384
3 1.27331 2.74581 -0.318945
2 1.06135 2.65618 0.16159
4 0.986499 2.28692 0.610725
4 1.18681 1.99422 1.08767
1 1.51223 1.87126 1.50219
1 1.98003 1.90529 1.78605
3 2.35008 2.26165 2.02795
2 2.52566 2.75701 2.26112
3 2.40862 3.15532 2.59286
2 2.14659 3.54074 2.89302
3 1.95421 2.45701 3.32823
2 1.56503 2.3342 2.98719
3 1.32188 2.55867 2.50109
2 1.15681 2.68296 1.97267
4 1.29559 2.95599 1.47425
4 1.62311 3.08323 1.02502
1 1.93793 2.93992 0.599148
1 2.17915 2.57621 0.287524
3 2.21454 2.08518 -0.0147922
2 1.97702 1.69389 -0.30426
3 1.60844 1.58668 -0.680563
2 1.20273 1.61302 -1.03217
24
Atoms. Timestep: 19000
3 2.02063 2.55286 -1.12888
2 1.7459 2.85058 -0.744796
3 1.27162 2.74317 -0.321601
2 1.0616 2.65714 0.158597
4 0.98697 2.28617 0.611059
4 1.18944 1.99203 1.08744
1 1.51121 1.87381 1.50327
1 1.97746 1.90379 1.78635
3 2.35223 2.26128 2.02967
2 2.52291 2.76068 2.2616
3 2.40733 3.15371 2.59216
2 2.14525 3.53897 2.89271
3 1.95395 2.45536 3.33095
2 1.56579 2.33568 2.98837
3 1.32401 2.56006 2.50124
2 1.16109 2.68334 1.97402
4 1.29597 2.95359 1.47431
4 1.62061 3.08137 1.02742
1 1.93815 2.94288 0.601848
1 2.17628 2.5801 0.288969
3 2.21563 2.0864 -0.0182161
2 1.97996 1.69628 -0.304702
3 1.60749 1.58582 -0.679275
2 1.20397 1.61496 -1.03071
24
Atoms. Timestep: 20000
3 2.02132 2.55309 -1.13305
2 1.74542 2.84874 -0.740443
3 1.27044 2.74172 -0.322818
2 1.06166 2.65715 0.156575
4 0.989241 2.28524 0.610372
4 1.19227 1.99145 1.08632
1 1.50993 1.87594 1.50468
1 1.97419 1.90427 1.78603
3 2.35336 2.26102 2.03096
2 2.5212 2.76306 2.26123
3 2.40572 3.15186 2.59311
2 2.14503 3.53835 2.89329
3 1.95537 2.45333 3.33292
2 1.56593 2.33564 2.99044
3 1.32581 2.55937 2.5014
2 1.16451 2.68459 1.97535
4 1.29744 2.95177 1.47494
4 1.6188 3.08061 1.0292
1 1.93922 2.94417 0.6041
1 2.17469 2.58289 0.289201
3 2.21724 2.08724 -0.0190823
2 1.98251 1.69927 -0.304359
3 1.60703 1.5857 -0.678361
2 1.20497 1.61611 -1.02871
24
Atoms. Timestep: 21000
3 2.02313 2.55407 -1.13584
2 1.74282 2.84609 -0.735847
3 1.26874 2.73999 -0.322881
2 1.06237 2.65764 0.155111
4 0.990525 2.28658 0.609893
4 1.19344 1.99202 1.08427
1 1.51035 1.87723 1.5073
1 1.97131 1.90526 1.78726
3 2.35399 2.26044 2.0321
2 2.51939 2.76472 2.26089
3 2.40448 3.15147 2.59431
2 2.14471 3.53868 2.8936
3 1.9558 2.4521 3.33247
2 1.5667 2.33611 2.99325
3 1.32706 2.55829 2.50097
2 1.16716 2.6855 1.97787
4 1.2981 2.95093 1.47762
4 1.61798 3.08025 1.03213
1 1.93986 2.94473 0.604979
1 2.17467 2.58518 0.287109
3 2.21975 2.08794 -0.0196766
2 1.98553 1.70131 -0.303769
3 1.60748 1.58585 -0.677869
2 1.20629 1.615 -1.02777
24
Atoms. Timestep: 22000
3 2.02472 2.55604 -1.13894
2 1.74143 2.84362 -0.731953
3 1.26726 2.73867 -0.321922
2 1.06132 2.6564 0.15543
4 0.992089 2.28809 0.609646
4 1.19479 1.99393 1.08256
1 1.50998 1.87853 1.50886
1 1.96964 1.90745 1.78787
3 2.35352 2.25979 2.03104
2 2.5185 2.76402 2.25967
3 2.40204 3.15189 2.59305
2 2.14336 3.53848 2.89436
3 1.95578 2.44973 3.33148
2 1.56699 2.33661 2.99586
3 1.32775 2.55806 2.50077
2 1.16986 2.68532 1.98018
4 1.2994 2.94914 1.48023
4 1.61672 3.07959 1.03385
1 1.94072 2.94498 0.605611
1 2.17521 2.58857 0.285525
3 2.22127 2.08829 -0.0195574
2 1.98615 1.70294 -0.303052
3 1.60714 1.58462 -0.676627
2 1.20874 1.61463 -1.02753
24
Atoms. Timestep: 23000
3 2.02592 2.55926 -1.14118
2 1.74042 2.84171 -0.729125
3 1.26693 2.73849 -0.320061
2 1.06087 2.65267 0.156795
4 0.992671 2.28828 0.612842
4 1.19737 1.99711 1.08025
1 1.51005 1.87872 1.51015
1 1.9694 1.90858 1.78748
3 2.35291 2.25905 2.03027
2 2.51623 2.7617 2.25915
3 2.39972 3.15255 2.59338
2 2.14311 3.53749 2.89441
3 1.95576 2.44672 3.33088
2 1.56797 2.33673 2.9976
3 1.3282 2.55778 2.49876
2 1.1734 2.68438 1.98268
4 1.30153 2.94796 1.48201
4 1.61535 3.07783 1.03511
1 1.94234 2.94722 0.607486
1 2.17599 2.59156 0.284994
3 2.22319 2.08812 -0.0190072
2 1.98662 1.70394 -0.303511
3 1.6052 1.5828 -0.675819
2 1.21075 1.61362 -1.02793
24
Atoms. Timestep: 24000
3 2.02597 2.56348 -1.1428
2 1.73962 2.83797 -0.728512
3 1.26675 2.73704 -0.318136
2 1.0614 2.649 0.158181
4 0.992488 2.28714 0.614931
4 1.20022 2.00093 1.07919
1 1.51045 1.87784 1.51098
1 1.96874 1.90963 1.78627
3 2.3549 2.25902 2.02964
2 2.51533 2.75966 2.25964
3 2.39936 3.15385 2.59465
2 2.14326 3.53653 2.89284
3 1.9569 2.44456 3.33144
2 1.56927 2.33626 2.99959
3 1.32907 2.55902 2.49735
2 1.17465 2.68522 1.98511
4 1.30424 2.94755 1.48212
4 1.61377 3.07527 1.03594
1 1.94589 2.94873 0.609033
1 2.17602 2.59177 0.285269
3 2.22573 2.08746 -0.0187059
2 1.98575 1.70421 -0.304651
3 1.60475 1.58207 -0.67349
2 1.21278 1.61211 -1.02739
24
Atoms. Timestep: 25000
3 2.02725 2.56746 -1.14181
2 1.74001 2.83425 -0.729242
3 1.26509 2.73486 -0.317246
2 1.06102 2.64714 0.159339
4 0.994227 2.28676 0.615111
4 1.20175 2.00448 1.07983
1 1.51057 1.87759 1.51307
1 1.96906 1.91301 1.78504
3 2.35646 2.25998 2.02793
2 2.51486 2.75827 2.26158
3 2.3989 3.15345 2.59579
2 2.14363 3.53604 2.8912
3 1.95655 2.44424 3.3328
2 1.57064 2.33789 3.00104
3 1.32974 2.56141 2.49563
2 1.17563 2.68705 1.98901
4 1.30671 2.94684 1.48097
4 1.61383 3.07336 1.03535
1 1.94893 2.95159 0.609215
1 2.17449 2.59103 0.285537
3 2.22769 2.08829 -0.0182069
2 1.98562 1.70426 -0.3045
3 1.60373 1.58068 -0.671158
2 1.21314 1.61028 -1.0278
24
Atoms. Timestep: 26000
3 2.02765 2.57027 -1.14267
2 1.74066 2.83159 -0.731523
3 1.26235 2.73265 -0.315458
2 1.06004 2.64642 0.159275
4 0.998698 2.28634 0.61446
4 1.20222 2.00791 1.08036
1 1.51028 1.87765 1.51329
1 1.97 1.91734 1.78503
3 2.35639 2.26123 2.02753
2 2.51373 2.75742 2.26424
3 2.39745 3.1553 2.59542
2 2.14304 3.5374 2.89124
3 1.95554 2.4444 3.33357
2 1.57206 2.34002 3.00285
3 1.33077 2.56285 2.49416
2 1.1763 2.6893 1.98925
4 1.30933 2.9459 1.47946
4 1.61567 3.07124 1.03451
1 1.94919 2.95263 0.608884
1 2.17325 2.58975 0.285771
3 2.23007 2.08889 -0.0183426
2 1.98591 1.70677 -0.303197
3 1.6029 1.58089 -0.668764
2 1.21226 1.60919 -1.02871
24
Atoms. Timestep: 27000
3 2.02819 2.57189 -1.14453
2 1.74108 2.82991 -0.734168
3 1.2595 2.73201 -0.314537
2 1.05925 2.64637 0.159447
4 1.00102 2.28525 0.614298
4 1.20256 2.01033 1.08067
1 1.51063 1.87735 1.51413
1 1.97047 1.92193 1.78462
3 2.35603 2.26022 2.02689
2 2.51316 2.7569 2.26616
3 2.3966 3.15687 2.59346
2 2.14221 3.53922 2.89061
3 1.95402 2.44481 3.3341
2 1.57332 2.34055 3.00442
3 1.33153 2.56359 2.49458
2 1.17893 2.69219 1.99017
4 1.31312 2.94454 1.47987
4 1.61603 3.069 1.03446
1 1.94726 2.95304 0.609601
1 2.17217 2.58984 0.286093
3 2.23202 2.09016 -0.0179089
2 1.98618 1.70908 -0.30158
3 1.60066 1.58177 -0.667038
2 1.21105 1.60921 -1.03093
24
Atoms. Timestep: 28000
3 2.02814 2.57268 -1.14559
2 1.74169 2.82746 -0.736317
3 1.25904 2.7322 -0.314293
2 1.05821 2.6454 0.160535
4 1.0013 2.2857 0.61357
4 1.20152 2.01079 1.08207
1 1.51196 1.87702 1.5145
1 1.96971 1.92603 1.78268
3 2.35756 2.25772 2.02622
2 2.51197 2.75732 2.26668
3 2.39681 3.15943 2.59002
2 2.14189 3.54024 2.8896
3 1.95423 2.44454 3.33409
2 1.5733 2.34115 3.00467
3 1.33179 2.56381 2.49575
2 1.18142 2.69459 1.99137
4 1.31695 2.943 1.48008
4 1.61664 3.06786 1.03469
1 1.94744 2.95348 0.610859
1 2.17261 2.58994 0.2857
3 2.23416 2.08972 -0.0170485
2 1.98674 1.71111 -0.300808
3 1.59935 1.58384 -0.66577
2 1.21036 1.60991 -1.03239
24
Atoms. Timestep: 29000
3 2.02936 2.57405 -1.14457
2 1.74175 2.82509 -0.7374
3 1.25871 2.73253 -0.315011
2 1.05865 2.643 0.160356
4 1.00211 2.28537 0.614202
4 1.20176 2.01082 1.08363
1 1.51408 1.87978 1.51519
1 1.96899 1.93034 1.7817
3 2.35935 2.25526 2.02535
2 2.5103 2.75721 2.26529
3 2.39687 3.16268 2.58777
2 2.14148 3.54213 2.88941
3 1.95614 2.44374 3.3351
2 1.57272 2.34271 3.00462
3 1.33153 2.56321 2.49663
2 1.18425 2.69714 1.99294
4 1.32169 2.94221 1.47986
4 1.61816 3.0682 1.03267
1 1.94815 2.95379 0.613152
1 2.1732 2.59013 0.285716
3 2.23619 2.08877 -0.015866
2 1.98895 1.71388 -0.30049
3 1.59615 1.58488 -0.664768
2 1.21095 1.60983 -1.03595
24
Atoms. Timestep: 30000
3 2.03158 2.57481 -1.14312
2 1.74199 2.82313 -0.739052
3 1.25786 2.73228 -0.31477
2 1.06012 2.64076 0.158941
4 1.00441 2.28544 0.61438
4 1.20113 2.01063 1.0843
1 1.51442 1.88311 1.51665
1 1.96839 1.93359 1.78033
3 2.35967 2.25323 2.0259
2 2.51082 2.75669 2.26348
3 2.39885 3.16446 2.58617
2 2.14153 3.54367 2.88949
3 1.95811 2.44376 3.33544
2 1.57354 2.34455 3.00491
3 1.33 2.56242 2.49794
2 1.18719 2.70018 1.99448
4 1.32409 2.94104 1.47891
4 1.6189 3.06809 1.03215
1 1.94904 2.95453 0.615932
1 2.1737 2.59097 0.285669
3 2.23615 2.08839 -0.0164445
2 1.99067 1.71399 -0.299039
3 1.59214 1.58625 -0.663706
2 1.21168 1.61022 -1.03914
24
Atoms. Timestep: 31000
3 2.033 2.5757 -1.14222
2 1.74206 2.82068 -0.74049
3 1.25693 2.7317 -0.31445
2 1.06062 2.63845 0.158969
4 1.00552 2.28432 0.614409
4 1.20124 2.01016 1.08409
1 1.51491 1.88574 1.51743
1 1.96783 1.93669 1.77842
3 2.36012 2.2507 2.02697
2 2.50974 2.75616 2.26324
3 2.40184 3.16518 2.58485
2 2.14035 3.54542 2.88927
3 1.95917 2.44374 3.33716
2 1.57499 2.34763 3.0063
3 1.32868 2.56069 2.49901
2 1.18819 2.70385 1.99472
4 1.32682 2.93908 1.47863
4 1.61935 3.06754 1.03247
1 1.95129 2.956 0.618158
1 2.17511 2.58973 0.286071
3 2.23506 2.08882 -0.0157693
2 1.9921 1.71176 -0.298358
3 1.58894 1.58707 -0.661971
2 1.21134 1.61001 -1.04148
24
Atoms. Timestep: 32000
3 2.03417 2.57609 -1.14107
2 1.74344 2.81766 -0.740846
3 1.25538 2.73211 -0.313588
2 1.05885 2.63705 0.159323
4 1.00537 2.2835 0.614664
4 1.20117 2.01049 1.08182
1 1.51437 1.88731 1.51902
1 1.96852 1.93758 1.77587
3 2.36071 2.24845 2.02506
2 2.50991 2.7545 2.26424
3 2.40329 3.16538 2.58393
2 2.14026 3.54579 2.88898
3 1.95987 2.4441 3.34009
2 1.57479 2.35145 3.00881
3 1.32692 2.55829 2.50059
2 1.18753 2.7068 1.9951
4 1.32844 2.93626 1.47932
4 1.61855 3.06537 1.03401
1 1.95303 2.95666 0.618809
1 2.17604 2.58844 0.286159
3 2.23264 2.08887 -0.0142699
2 1.99119 1.70844 -0.296998
3 1.58551 1.58651 -0.661943
2 1.21182 1.61196 -1.04314
24
Atoms. Timestep: 33000
3 2.03485 2.5769 -1.13801
2 1.74302 2.81335 -0.739642
3 1.25488 2.73395 -0.311218
2 1.05617 2.63699 0.158333
4 1.00486 2.28426 0.616037
4 1.2002 2.01073 1.0789
1 1.5135 1.88651 1.52221
1 1.96999 1.93865 1.77363
3 2.36225 2.24788 2.02353
2 2.51118 2.75318 2.26557
3 2.40495 3.16635 2.58409
2 2.14072 3.54479 2.8887
3 1.96024 2.44576 3.34265
2 1.57473 2.35533 3.00987
3 1.32437 2.55633 2.50262
2 1.18498 2.70857 1.99442
4 1.32898 2.93376 1.48061
4 1.61652 3.06294 1.03524
1 1.95385 2.95561 0.620136
1 2.17646 2.58807 0.286526
3 2.22846 2.08881 -0.0122504
2 1.99027 1.70633 -0.296244
3 1.58309 1.58671 -0.662527
2 1.21227 1.61334 -1.04439
24
Atoms. Timestep: 34000
3 2.03443 2.57839 -1.13616
2 1.7429 2.81156 -0.737589
3 1.25422 2.73608 -0.309595
2 1.05351 2.63897 0.155922
4 1.00432 2.28338 0.61774
4 1.19885 2.01032 1.07711
1 1.5112 1.88466 1.52732
1 1.97306 1.93873 1.77133
3 2.3619 2.24935 2.02185
2 2.51127 2.75155 2.2664
3 2.40679 3.16822 2.58561
2 2.14144 3.54549 2.88803
3 1.96044 2.44754 3.34405
2 1.57404 2.35787 3.01092
3 1.32163 2.55686 2.50413
2 1.18262 2.70949 1.99443
4 1.32658 2.93075 1.481
4 1.61438 3.06154 1.03681
1 1.95462 2.95408 0.621586
1 2.17571 2.58724 0.286851
3 2.22396 2.08906 -0.0116085
2 1.98935 1.70541 -0.295759
3 1.58119 1.58687 -0.661191
2 1.21237 1.61474 -1.04541
24
Atoms. Timestep: 35000
3 2.03518 2.58037 -1.13421
2 1.74226 2.81057 -0.734702
3 1.25369 2.73831 -0.308668
2 1.05225 2.64089 0.153581
4 1.00403 2.28281 0.618875
4 1.1971 2.01018 1.07659
1 1.50838 1.88333 1.53223
1 1.97561 1.9381 1.76977
3 2.36225 2.2493 2.02115
2 2.51131 2.74958 2.2675
3 2.40747 3.16977 2.58735
2 2.14219 3.54777 2.88751
3 1.96072 2.44954 3.3451
2 1.57399 2.3602 3.0122
3 1.31812 2.55764 2.505
2 1.18033 2.70956 1.99454
4 1.32362 2.92956 1.48241
4 1.61253 3.05766 1.0394
1 1.9549 2.95378 0.623359
1 2.17431 2.58567 0.287159
3 2.22037 2.08976 -0.0116265
2 1.98879 1.70548 -0.294559
3 1.57932 1.58709 -0.660733
2 1.21077 1.6161 -1.04701
24
Atoms. Timestep: 36000
3 2.03456 2.58301 -1.13191
2 1.74128 2.80957 -0.732523
3 1.25312 2.74048 -0.307019
2 1.05191 2.64091 0.151173
4 1.00311 2.28157 0.618516
4 1.19779 2.0111 1.07594
1 1.5058 1.88429 1.5353
1 1.97784 1.93859 1.76997
3 2.3606 2.25077 2.02172
2 2.51246 2.74853 2.26879
3 2.4073 3.17168 2.58835
2 2.14224 3.55015 2.88685
3 1.96103 2.45188 3.34417
2 1.57379 2.36408 3.01519
3 1.31555 2.55858 2.50495
2 1.1799 2.71014 1.99221
4 1.31972 2.92764 1.48187
4 1.60911 3.05232 1.04345
1 1.95512 2.95409 0.623861
1 2.17441 2.58424 0.287785
3 2.21646 2.08923 -0.012507
2 1.98654 1.70539 -0.292741
3 1.57693 1.58801 -0.660629
2 1.20809 1.61693 -1.04975
24
Atoms. Timestep: 37000
3 2.03489 2.58436 -1.1302
2 1.74174 2.80806 -0.73137
3 1.25323 2.74161 -0.306427
2 1.05223 2.63924 0.149064
4 1.00284 2.28116 0.617797
4 1.19971 2.01314 1.07413
1 1.50294 1.88719 1.53729
1 1.97969 1.93783 1.77067
3 2.35861 2.25423 2.02292
2 2.51378 2.74903 2.26879
3 2.40601 3.17385 2.5878
2 2.14214 3.55239 2.88672
3 1.96097 2.45379 3.34282
2 1.57403 2.37027 3.01769
3 1.3138 2.55849 2.50416
2 1.18051 2.71342 1.98851
4 1.31629 2.92756 1.48182
4 1.60689 3.04782 1.04637
1 1.95613 2.95464 0.625035
1 2.1752 2.58053 0.287372
3 2.21372 2.08897 -0.0123432
2 1.98366 1.70498 -0.291228
3 1.57444 1.58935 -0.660452
2 1.20532 1.61841 -1.05058
24
Atoms. Timestep: 38000
3 2.03561 2.58594 -1.12736
2 1.74275 2.80518 -0.732264
3 1.25382 2.74341 -0.306374
2 1.05261 2.63821 0.149112
4 1.00431 2.28127 0.618329
4 1.20165 2.01583 1.07255
1 1.50192 1.88876 1.53999
1 1.98258 1.93753 1.77141
3 2.35773 2.25749 2.02268
2 2.5136 2.75027 2.26749
3 2.40561 3.17725 2.58624
2 2.14237 3.55305 2.88767
3 1.95999 2.45422 3.34171
2 1.57316 2.37563 3.01859
3 1.31252 2.55908 2.50285
2 1.17932 2.71702 1.98516
4 1.31379 2.92733 1.48055
4 1.60526 3.0432 1.04872
1 1.95685 2.95499 0.626724
1 2.17596 2.57938 0.287895
3 2.21002 2.08875 -0.0124035
2 1.98118 1.70368 -0.288786
3 1.57259 1.59096 -0.660721
2 1.20349 1.61911 -1.04991
24
Atoms. Timestep: 39000
3 2.03601 2.58662 -1.12429
2 1.74258 2.80077 -0.73197
3 1.25236 2.74477 -0.308531
2 1.0536 2.63584 0.14784
4 1.00446 2.28306 0.617162
4 1.20304 2.0175 1.07227
1 1.50144 1.89076 1.5415
1 1.9839 1.93776 1.7714
3 2.35651 2.25898 2.02298
2 2.51355 2.75307 2.26646
3 2.40426 3.17923 2.58401
2 2.14226 3.55179 2.88941
3 1.95976 2.45413 3.34095
2 1.57204 2.3789 3.01898
3 1.31188 2.55954 2.50231
2 1.17777 2.71948 1.98224
4 1.31262 2.92855 1.4792
4 1.60284 3.03939 1.04942
1 1.95599 2.95446 0.628616
1 2.1766 2.57932 0.288103
3 2.20581 2.08988 -0.012267
2 1.97832 1.70328 -0.286423
3 1.57129 1.59378 -0.662895
2 1.20382 1.61793 -1.0504
24
Atoms. Timestep: 40000
3 2.03681 2.58816 -1.12033
2 1.74271 2.79735 -0.732614
3 1.25107 2.74487 -0.311577
2 1.05462 2.63325 0.145996
4 1.00311 2.28426 0.615506
4 1.20489 2.02096 1.07213
1 1.50227 1.89182 1.54106
1 1.98487 1.93787 1.76978
3 2.35562 2.25851 2.02551
2 2.51397 2.75549 2.26395
3 2.40384 3.18054 2.583
2 2.14149 3.55081 2.89171
3 1.95856 2.45483 3.34065
2 1.57122 2.38192 3.01982
3 1.31206 2.55958 2.50232
2 1.17766 2.7211 1.98113
4 1.31068 2.92799 1.47899
4 1.59885 3.03673 1.04898
1 1.95527 2.95393 0.632147
1 2.17692 2.57915 0.289164
3 2.20082 2.09051 -0.012365
2 1.97792 1.70369 -0.283821
3 1.57025 1.59699 -0.665453
2 1.20412 1.61598 -1.05393
24
Atoms. Timestep: 41000
3 2.03814 2.58865 -1.11632
2 1.74287 2.79542 -0.734572
3 1.25104 2.74355 -0.315117
2 1.05382 2.63115 0.144062
4 1.00067 2.28555 0.61279
4 1.20633 2.02359 1.07363
1 1.50317 1.8917 1.54094
1 1.98678 1.93859 1.76763
3 2.35467 2.26047 2.02853
2 2.51386 2.75554 2.26195
3 2.40302 3.18028 2.58395
2 2.14062 3.55011 2.89363
3 1.95839 2.45459 3.34095
2 1.5708 2.38373 3.02081
3 1.31365 2.56106 2.50131
2 1.17851 2.72275 1.98042
4 1.30902 2.92639 1.47832
4 1.59343 3.03443 1.0478
1 1.95489 2.95496 0.634122
1 2.17743 2.57921 0.289736
3 2.19673 2.09141 -0.0126276
2 1.97859 1.70334 -0.281392
3 1.56778 1.59984 -0.66638
2 1.2036 1.61428 -1.05785
24
Atoms. Timestep: 42000
3 2.03949 2.58764 -1.1124
2 1.74235 2.79328 -0.736142
3 1.25016 2.74225 -0.31962
2 1.05234 2.63023 0.141569
4 0.998534 2.28683 0.610613
4 1.20773 2.02575 1.07568
1 1.50259 1.89192 1.53893
1 1.98842 1.94135 1.7669
3 2.3543 2.26282 2.0315
2 2.51234 2.75567 2.26019
3 2.4026 3.18047 2.58418
2 2.13976 3.5493 2.89466
3 1.95837 2.45258 3.3427
2 1.5699 2.38468 3.02265
3 1.31522 2.5608 2.4998
2 1.18035 2.72284 1.98143
4 1.3085 2.92476 1.47702
4 1.58958 3.03158 1.04747
1 1.95425 2.9559 0.635345
1 2.17796 2.57952 0.290923
3 2.19142 2.09267 -0.0119747
2 1.97957 1.70344 -0.277564
3 1.56421 1.60146 -0.668135
2 1.20432 1.61298 -1.05907
24
Atoms. Timestep: 43000
3 2.03938 2.58648 -1.10865
2 1.74248 2.78904 -0.73485
3 1.24793 2.74096 -0.325069
2 1.05106 2.62919 0.14003
4 0.996429 2.28815 0.609073
4 1.20749 2.02821 1.07976
1 1.50236 1.89381 1.53629
1 1.989 1.94506 1.76646
3 2.35618 2.26428 2.03466
2 2.51207 2.75594 2.2572
3 2.40215 3.18182 2.58483
2 2.13888 3.54923 2.89555
3 1.95837 2.45093 3.34271
2 1.56935 2.38521 3.02575
3 1.31832 2.56029 2.4975
2 1.18393 2.7236 1.98275
4 1.30688 2.9246 1.47598
4 1.58772 3.02965 1.0488
1 1.95382 2.95736 0.635006
1 2.17737 2.57921 0.292159
3 2.18622 2.09295 -0.010569
2 1.97911 1.70414 -0.274079
3 1.55921 1.60144 -0.669405
2 1.20545 1.61311 -1.0593
24
Atoms. Timestep: 44000
3 2.03953 2.58607 -1.10466
2 1.74555 2.78548 -0.73427
3 1.24619 2.74155 -0.330817
2 1.05097 2.62773 0.138599
4 0.994394 2.28972 0.607889
4 1.20634 2.03003 1.08131
1 1.50047 1.8943 1.535
1 1.98946 1.94838 1.76731
3 2.35949 2.26474 2.03742
2 2.51237 2.75624 2.25634
3 2.40324 3.18449 2.58623
2 2.13864 3.55014 2.89506
3 1.95971 2.44901 3.34176
2 1.56825 2.3857 3.02829
3 1.32093 2.56095 2.49426
2 1.18753 2.72499 1.98416
4 1.3078 2.92379 1.47393
4 1.58743 3.03018 1.05107
1 1.95471 2.95723 0.635356
1 2.17678 2.57897 0.294323
3 2.18169 2.09232 -0.00879794
2 1.97969 1.70484 -0.271163
3 1.55528 1.60154 -0.670597
2 1.20751 1.61272 -1.05861
24
Atoms. Timestep: 45000
3 2.03779 2.58677 -1.09993
2 1.74816 2.78413 -0.733909
3 1.24266 2.74234 -0.334033
2 1.05144 2.62677 0.1376
4 0.993076 2.29051 0.607344
4 1.20343 2.03184 1.0811
1 1.49997 1.89522 1.53459
1 1.98958 1.95072 1.768
3 2.36264 2.26513 2.03974
2 2.51116 2.75605 2.25464
3 2.40418 3.18737 2.58673