ITEM: TIMESTEP
0
ITEM: NUMBER OF ATOMS
24
ITEM: BOX BOUNDS pp pp pp
-8.0000000000000000e+02 8.0000000000000000e+02
-8.0000000000000000e+02 8.0000000000000000e+02
-8.0000000000000000e+02 8.0000000000000000e+02
ITEM: ATOMS id x y z vx vy vz angmomx angmomy angmomz c_quat[1] c_quat[2] c_quat[3] c_quat[4]
1   2.005320284   2.539099020  -1.136203548   0.000000000   0.000000000   0.000000000   0.000000000   0.000000000   0.000000000 -3.489659e-01  5.152277e-02  8.528516e-02  9.318233e-01
2   1.697810210   2.862310154  -0.753741303   0.000000000   0.000000000   0.000000000   0.000000000   0.000000000   0.000000000  7.414146e-01  2.133699e-02 -7.962675e-02 -6.659645e-01
3   1.310204060   2.754140964  -0.315673760   0.000000000   0.000000000   0.000000000   0.000000000   0.000000000   0.000000000  8.274675e-01 -1.314875e-01  3.569493e-03 -5.458899e-01
4   1.080553874   2.655200751   0.189474920   0.000000000   0.000000000   0.000000000   0.000000000   0.000000000   0.000000000  9.866708e-01 -3.042978e-02  5.958644e-02 -1.483383e-01
5   0.999953041   2.281897159   0.650399155   0.000000000   0.000000000   0.000000000   0.000000000   0.000000000   0.000000000  9.825227e-01 -2.089945e-02  8.675070e-02  1.633606e-01
6   1.188136887   1.979155905   1.103750880   0.000000000   0.000000000   0.000000000   0.000000000   0.000000000   0.000000000  8.957934e-01  2.021693e-03  1.525723e-01  4.174586e-01
7   1.517939601   1.860849294   1.494957457   0.000000000   0.000000000   0.000000000   0.000000000   0.000000000   0.000000000  8.209041e-01 -1.220732e-02  1.789968e-01  5.421508e-01
8   1.992693344   1.922751820   1.789018214   0.000000000   0.000000000   0.000000000   0.000000000   0.000000000   0.000000000  5.993667e-01  2.553675e-02  2.087670e-01  7.723495e-01
9   2.324969583   2.255074815   2.030219428   0.000000000   0.000000000   0.000000000   0.000000000   0.000000000   0.000000000  2.726460e-01  1.052273e-01  2.076630e-01  9.335242e-01
10   2.550209464   2.747877560   2.271134810   0.000000000   0.000000000   0.000000000   0.000000000   0.000000000   0.000000000 -1.374312e-01  8.486614e-02  2.180303e-01  9.624828e-01
11   2.422191509   3.176113684   2.577771137   0.000000000   0.000000000   0.000000000   0.000000000   0.000000000   0.000000000 -2.830898e-01  1.020321e-01  1.749304e-01  9.374695e-01
12   2.151260566   3.571297546   2.860677389   0.000000000   0.000000000   0.000000000   0.000000000   0.000000000   0.000000000  7.264080e-01 -1.775422e-01 -1.625820e-01 -6.437214e-01
13   1.981024141   2.474988794   3.326106214   0.000000000   0.000000000   0.000000000   0.000000000   0.000000000   0.000000000  5.249277e-02  6.553697e-01  7.182288e-01 -2.277771e-01
14   1.519358387   2.347647706   2.982828932   0.000000000   0.000000000   0.000000000   0.000000000   0.000000000   0.000000000  1.047525e-01  9.375503e-01  2.767814e-01 -1.828071e-01
15   1.301751371   2.562199834   2.493649811   0.000000000   0.000000000   0.000000000   0.000000000   0.000000000   0.000000000  1.786455e-01  9.618297e-01  1.469381e-01 -1.462140e-01
16   1.154335710   2.701276554   1.965991523   0.000000000   0.000000000   0.000000000   0.000000000   0.000000000   0.000000000  1.239604e-01  9.636035e-01 -2.349592e-01 -2.993923e-02
17   1.290549425   2.968278939   1.460284104   0.000000000   0.000000000   0.000000000   0.000000000   0.000000000   0.000000000  1.029361e-01  8.449198e-01 -5.214320e-01  6.019445e-02
18   1.618983329   3.076631838   0.988436253   0.000000000   0.000000000   0.000000000   0.000000000   0.000000000   0.000000000  9.883269e-02  6.588631e-01 -7.345209e-01  1.288824e-01
19   1.944850680   2.917988797   0.591520478   0.000000000   0.000000000   0.000000000   0.000000000   0.000000000   0.000000000  1.155416e-01  5.561901e-01 -8.135328e-01  1.243665e-01
20   2.206051052   2.583308177   0.275377632   0.000000000   0.000000000   0.000000000   0.000000000   0.000000000   0.000000000 -7.604845e-02 -2.488993e-01  9.514068e-01 -1.645928e-01
21   2.210970352   2.105018250   0.019968409   0.000000000   0.000000000   0.000000000   0.000000000   0.000000000   0.000000000 -2.809598e-02  9.654299e-02  9.763425e-01 -1.914297e-01
22   1.973727463   1.671976372  -0.309147193   0.000000000   0.000000000   0.000000000   0.000000000   0.000000000   0.000000000 -3.918143e-02  5.146140e-01  8.399146e-01 -1.678713e-01
23   1.622585327   1.589308203  -0.687746804   0.000000000   0.000000000   0.000000000   0.000000000   0.000000000   0.000000000 -2.328638e-02  6.687815e-01  7.365825e-01 -9.815962e-02
24   1.189400387   1.623804003  -1.057312456   0.000000000   0.000000000   0.000000000   0.000000000   0.000000000   0.000000000  7.346117e-02  9.267594e-01  3.683473e-01  6.383765e-03
ITEM: TIMESTEP
1000
ITEM: NUMBER OF ATOMS
24
ITEM: BOX BOUNDS pp pp pp
-8.0000000000000000e+02 8.0000000000000000e+02
-8.0000000000000000e+02 8.0000000000000000e+02
-8.0000000000000000e+02 8.0000000000000000e+02
ITEM: ATOMS id x y z vx vy vz angmomx angmomy angmomz c_quat[1] c_quat[2] c_quat[3] c_quat[4]
1   2.005519007   2.538631270  -1.135210856   0.148008727   0.037389664   0.191061650   0.095999178   0.123405350   0.512995129 -3.518226e-01  5.221309e-02  8.273095e-02  9.309405e-01
2   1.697797587   2.861945257  -0.755223109   0.036998759   0.069977787  -0.268522947  -0.055942836  -0.109264892   0.334753905  7.410218e-01  2.108829e-02 -8.200807e-02 -6.661206e-01
3   1.308170126   2.756848046  -0.316152895  -0.209695493   0.408207008   0.056580300   0.178772935  -0.083773599   0.127524496  8.277837e-01 -1.307509e-01  5.242549e-03 -5.455739e-01
4   1.079690551   2.654714662   0.190559535  -0.066007556   0.015610267   0.012897356  -0.032459972   0.449525755  -0.096203574  9.863792e-01 -3.119127e-02  6.212109e-02 -1.490778e-01
5   0.999581114   2.284161967   0.649868213   0.020185858   0.172825231  -0.167725897   0.089403867  -0.282610731  -0.000626587  9.825541e-01 -1.954773e-02  8.597147e-02  1.637503e-01
6   1.189273916   1.980061143   1.103050383   0.151057570   0.165751353  -0.186184657  -0.068953395   0.088768877   0.006866612  8.961107e-01  3.399263e-03  1.532217e-01  4.165299e-01
7   1.517112817   1.860872816   1.495014997  -0.114982990  -0.035651280   0.067660295   0.015722712  -0.214203452  -0.139856974  8.212467e-01 -1.439925e-02  1.783015e-01  5.418072e-01
8   1.992524837   1.922919109   1.789070096   0.017739036   0.049171170  -0.030516035   0.190700465  -0.076340158  -0.252116742  5.996900e-01  2.688007e-02  2.079699e-01  7.722680e-01
9   2.324331939   2.256487625   2.031306392  -0.048341768   0.200422874   0.225293966   0.101281904   0.097980112   0.126997934  2.729926e-01  1.031717e-01  2.073001e-01  9.337330e-01
10   2.548503630   2.748109210   2.270709798  -0.231238297  -0.025431105  -0.045045105  -0.072903001  -0.125730258   0.210641127 -1.390255e-01  8.420021e-02  2.192641e-01  9.620320e-01
11   2.421496137   3.174874135   2.578003148  -0.118781956  -0.261975383  -0.067290260  -0.049553321   0.080987557  -0.017191737 -2.831433e-01  1.010250e-01  1.754506e-01  9.374651e-01
12   2.152376445   3.571615524   2.859906795   0.208494454  -0.025959048  -0.160595642  -0.008324293  -0.004990051  -0.231841634  7.265323e-01 -1.777308e-01 -1.614469e-01 -6.438148e-01
13   1.980289630   2.475602561   3.326209077  -0.051088692   0.059264305   0.096252797   0.108772122  -0.330345461   0.135472842  5.288487e-02  6.556088e-01  7.189340e-01 -2.247538e-01
14   1.520809161   2.346429753   2.982394390   0.313140594  -0.131889368  -0.185663525  -0.006897146   0.042246525   0.043636743  1.037856e-01  9.373108e-01  2.776955e-01 -1.831999e-01
15   1.303421458   2.561382296   2.495246854   0.235527859  -0.062966676   0.264187580   0.012129378  -0.130808929  -0.037301655  1.760174e-01  9.621780e-01  1.470396e-01 -1.470061e-01
16   1.153877686   2.700105477   1.966833023  -0.049182335  -0.133093273   0.200283658  -0.029050556   0.054006574   0.098838885  1.232744e-01  9.638831e-01 -2.340149e-01 -3.114092e-02
17   1.290630644   2.968413233   1.461764389   0.057046080   0.007324806   0.103886550  -0.017459406  -0.123322353  -0.014436314  1.024408e-01  8.439374e-01 -5.230688e-01  6.061896e-02
18   1.618614628   3.075935167   0.988993519  -0.009533757  -0.254622273   0.037612094  -0.114469935  -0.311545022   0.029410258  9.633509e-02  6.584911e-01 -7.345323e-01  1.325567e-01
19   1.943545454   2.917127013   0.589880524  -0.193296107  -0.048088600  -0.389516527   0.054030842  -0.086742357  -0.315242494  1.159600e-01  5.561117e-01 -8.138290e-01  1.223743e-01
20   2.206157070   2.581921838   0.275290929  -0.092754238  -0.053588397  -0.083099495   0.205340510  -0.055807697   0.114434408 -7.347522e-02 -2.502949e-01  9.514730e-01 -1.632574e-01
21   2.210765330   2.104282631   0.020466473   0.083999844  -0.123863205   0.066565565  -0.063619687   0.386401948  -0.067224384 -3.001557e-02  9.536087e-02  9.764366e-01 -1.912508e-01
22   1.973644996   1.670613664  -0.309571975   0.098576248  -0.225613472  -0.092142846  -0.160826459  -0.176243522   0.322730510 -3.718087e-02  5.115482e-01  8.419379e-01 -1.675606e-01
23   1.622678612   1.589851786  -0.687693670   0.031573158   0.052193753   0.068233936  -0.015691486   0.027113913  -0.647906893 -2.419981e-02  6.714182e-01  7.340201e-01 -9.912875e-02
24   1.190173599   1.623835819  -1.057848625   0.092358975   0.024727538  -0.028789716  -0.187263183   0.079527453  -0.156930017  7.279404e-02  9.271665e-01  3.674743e-01  5.090680e-03
ITEM: TIMESTEP
2000
ITEM: NUMBER OF ATOMS
24
ITEM: BOX BOUNDS pp pp pp
-8.0000000000000000e+02 8.0000000000000000e+02
-8.0000000000000000e+02 8.0000000000000000e+02
-8.0000000000000000e+02 8.0000000000000000e+02
ITEM: ATOMS id x y z vx vy vz angmomx angmomy angmomz c_quat[1] c_quat[2] c_quat[3] c_quat[4]
1   2.005191714   2.538746038  -1.133204461  -0.091215778   0.023674659   0.289585750  -0.033363419   0.216707125   0.428426997 -3.551238e-01  5.395712e-02  8.293993e-02  9.295680e-01
2   1.698888006   2.861518835  -0.756344862   0.114226929  -0.096881810  -0.121091510  -0.317637921   0.377077074   0.279373527  7.430118e-01  1.584322e-02 -8.279799e-02 -6.639480e-01
3   1.305369714   2.759485076  -0.315087852  -0.426020579   0.092924235   0.198062871  -0.238088602   0.272224841  -0.011207108  8.280500e-01 -1.300822e-01  5.168422e-03 -5.453303e-01
4   1.078560038   2.655206403   0.190095739  -0.181859359   0.070033417  -0.099952626   0.139369023   0.227202696   0.167126224  9.862014e-01 -3.142275e-02  6.527582e-02 -1.488570e-01
5   0.999936474   2.284343541   0.649175031  -0.045822778  -0.047861631  -0.009593017   0.172704232   0.072983765  -0.368706211  9.830084e-01 -1.986537e-02  8.374072e-02  1.621339e-01
6   1.190373713   1.981062537   1.101630719   0.076540529   0.049741859  -0.113451298  -0.005860682  -0.590958571  -0.116392032  8.967129e-01  2.697853e-03  1.514823e-01  4.158747e-01
7   1.515236529   1.861110883   1.495027221  -0.367267695  -0.026332924  -0.056634932  -0.073353582  -0.069606159   0.080154430  8.227202e-01 -1.785249e-02  1.769053e-01  5.399234e-01
8   1.992849111   1.922807689   1.787553181   0.057815148   0.023507489  -0.149636460   0.127834199  -0.025814775   0.129808616  5.981269e-01  2.899317e-02  2.063566e-01  7.738350e-01
9   2.323892157   2.259471317   2.032550336  -0.069125013   0.213361864   0.053967922  -0.194693936   0.148316693  -0.133047967  2.729090e-01  1.034450e-01  2.089510e-01  9.333592e-01
10   2.546088996   2.745825410   2.270746534  -0.161314282  -0.275938380   0.165422983  -0.158399913   0.189225695  -0.457881203 -1.393426e-01  8.579047e-02  2.197295e-01  9.617393e-01
11   2.421477038   3.173129111   2.578267640  -0.015239509  -0.032240883   0.048480830   0.251590881   0.238267157   0.359219776 -2.833677e-01  1.016527e-01  1.734401e-01  9.377036e-01
12   2.153925182   3.570296836   2.858470926  -0.010451361  -0.191500985  -0.065523965  -0.268562742  -0.100792137  -0.374199728  7.237928e-01 -1.782178e-01 -1.628473e-01 -6.464079e-01
13   1.979425673   2.475154149   3.325978916  -0.135384232  -0.224504938  -0.118853288   0.264726235   0.094102491  -0.641723713  5.268444e-02  6.582397e-01  7.172088e-01 -2.226128e-01
14   1.524354538   2.344370242   2.980266655   0.371907309  -0.320360429  -0.071253896  -0.063080151  -0.151958559   0.212380337  1.039995e-01  9.369497e-01  2.798454e-01 -1.816480e-01
15   1.305255491   2.562504847   2.497345772   0.162838403   0.200484386   0.320586573   0.137612641  -0.297906437  -0.569277744  1.753090e-01  9.628856e-01  1.458746e-01 -1.443564e-01
16   1.153197138   2.698491988   1.968325840  -0.143116830  -0.141698637   0.084015537  -0.041966811  -0.036636153   0.103508056  1.232374e-01  9.643010e-01 -2.323468e-01 -3.083923e-02
17   1.291085259   2.969042261   1.461253039   0.027146028  -0.029103767  -0.194378285   0.394489100   0.150405771   0.022785389  1.008378e-01  8.438477e-01 -5.235923e-01  6.003271e-02
18   1.617496312   3.073599757   0.989547841  -0.166588357  -0.224469986   0.143684486   0.102291406  -0.185734820  -0.098632094  9.494296e-02  6.582104e-01 -7.350413e-01  1.321334e-01
19   1.940686075   2.917221747   0.586769777  -0.381498641   0.025720554  -0.256327064  -0.134251142   0.063550899  -0.249510134  1.167501e-01  5.532808e-01 -8.153676e-01  1.241991e-01
20   2.205860568   2.582623456   0.274384628  -0.056391900   0.105208143  -0.113708228   0.095587868  -0.195183805  -0.238588717 -7.008253e-02 -2.506072e-01  9.521662e-01 -1.601999e-01
21   2.211372641   2.101938950   0.020640789   0.109662860  -0.334718940   0.088758068   0.079797106  -0.081260511   0.001258533 -3.210136e-02  9.605157e-02  9.762091e-01 -1.917275e-01
22   1.973608639   1.669894711  -0.310147946  -0.033723965   0.020020144   0.001320973  -0.457068674  -0.217903320   0.042857156 -3.375495e-02  5.102867e-01  8.423764e-01 -1.699121e-01
23   1.622438344   1.590831107  -0.686919707  -0.009311178   0.086491363   0.213804346  -0.335000096   0.162326573  -0.430675224 -2.536835e-02  6.760963e-01  7.294561e-01 -1.007176e-01
24   1.189580765   1.623979980  -1.057091486  -0.174845977  -0.015030951   0.065702094  -0.376868332   0.052196099   0.210883006  7.537189e-02  9.266606e-01  3.682379e-01  4.485481e-03
ITEM: TIMESTEP
3000
ITEM: NUMBER OF ATOMS
24
ITEM: BOX BOUNDS pp pp pp
-8.0000000000000000e+02 8.0000000000000000e+02
-8.0000000000000000e+02 8.0000000000000000e+02
-8.0000000000000000e+02 8.0000000000000000e+02
ITEM: ATOMS id x y z vx vy vz angmomx angmomy angmomz c_quat[1] c_quat[2] c_quat[3] c_quat[4]
1   2.004170102   2.539042995  -1.131405580  -0.169682373   0.137626429   0.135805600   0.128835426   0.032416401   0.165809724 -3.595882e-01  5.276505e-02  8.170679e-02  9.280281e-01
2   1.701100389   2.859828797  -0.757712618   0.340169566  -0.291175309  -0.179630261  -0.180981378   0.252762999  -0.263589344  7.434907e-01  1.168323e-02 -8.023630e-02 -6.638127e-01
3   1.301389277   2.759344130  -0.314951179  -0.446131917   0.054051608  -0.039552431  -0.021772948  -0.125857182  -0.034786663  8.282780e-01 -1.323355e-01  6.231239e-03 -5.444300e-01
4   1.076749119   2.656488723   0.188043876  -0.120778087   0.140517565  -0.250044011  -0.011109999   0.158205979   0.359986641  9.864148e-01 -3.302499e-02  6.698349e-02 -1.463163e-01
5   1.000424907   2.284849698   0.648327523   0.044138146  -0.005275808  -0.129270850   0.119788589  -0.088231005  -0.443109332  9.836136e-01 -1.794685e-02  8.358912e-02  1.587293e-01
6   1.191184942   1.983464824   1.099807047   0.108256079   0.365864603  -0.156777881   0.125665613  -0.140772990  -0.323310818  8.982865e-01  3.396382e-03  1.476025e-01  4.138639e-01
7   1.512188802   1.861514101   1.495129260  -0.119441434   0.112523130   0.004944354  -0.389832474   0.078941454   0.123705513  8.226931e-01 -2.007283e-02  1.771542e-01  5.398051e-01
8   1.993147222   1.921876046   1.786569266   0.007031743  -0.088070805  -0.132591154  -0.228485908  -0.359083872   0.006926281  5.971671e-01  2.740478e-02  2.046977e-01  7.750737e-01
9   2.323621495   2.261192218   2.032803489  -0.008756208   0.108465209   0.140806547   0.202483166  -0.074234390   0.219445174  2.728827e-01  1.039116e-01  2.096496e-01  9.331583e-01
10   2.544146361   2.744406337   2.271883355  -0.296790642   0.020953709   0.157263323  -0.116142618   0.123241960  -0.348688030 -1.363410e-01  8.772662e-02  2.209813e-01  9.617081e-01
11   2.420919820   3.172982441   2.579155190   0.003003453  -0.116669642   0.194183725  -0.045392881  -0.074764793   0.252390939 -2.879465e-01  1.028557e-01  1.728077e-01  9.362932e-01
12   2.152606021   3.568749145   2.858968962  -0.199161724  -0.138057737   0.109228208  -0.466060925   0.085806737  -0.165040956  7.210738e-01 -1.799661e-01 -1.663751e-01 -6.480618e-01
13   1.977824158   2.472170403   3.324258308  -0.047434375  -0.313418387  -0.107714671  -0.025750393  -0.060984283  -0.269970891  5.037398e-02  6.607315e-01  7.149934e-01 -2.228918e-01
14   1.527914791   2.342876863   2.979190607   0.306006457  -0.026645631  -0.100113932   0.058447896  -0.057923705  -0.188358581  1.036397e-01  9.370634e-01  2.800233e-01 -1.809913e-01
15   1.306338401   2.563404864   2.498784334   0.053533768  -0.036401819   0.001145325   0.069924089  -0.275683899  -0.378548740  1.735132e-01  9.645596e-01  1.395157e-01 -1.416096e-01
16   1.151068286   2.696720966   1.968911825  -0.197639618  -0.109674173   0.166383217  -0.130950981  -0.141584956   0.124582422  1.229677e-01  9.644027e-01 -2.321174e-01 -3.046047e-02
17   1.291287227   2.967992174   1.460756779   0.132459964  -0.196811877   0.138248796   0.200157573   0.185495831   0.109349919  9.808054e-02  8.450725e-01 -5.226274e-01  5.561801e-02
18   1.616191630   3.071093177   0.989809483  -0.214175281  -0.329401316  -0.033027126  -0.260164027   0.055260413  -0.084265278  9.626721e-02  6.571146e-01 -7.358540e-01  1.321060e-01
19   1.936719308   2.918618120   0.585274442  -0.288408624   0.110695628  -0.052376083   0.067813340   0.088896162  -0.082756286  1.179281e-01  5.528868e-01 -8.152733e-01  1.254533e-01
20   2.205416621   2.582897742   0.273162884   0.049796730  -0.100243734  -0.145104805   0.297343338  -0.051675081   0.261120789 -6.954262e-02 -2.501441e-01  9.526265e-01 -1.584125e-01
21   2.213457790   2.098698515   0.021810324   0.283248709  -0.274069546   0.107864400   0.089549522   0.165485992   0.080727990 -3.093782e-02  9.572593e-02  9.762282e-01 -1.919839e-01
22   1.973139713   1.669310716  -0.308714237  -0.014307281  -0.172969594   0.192974233  -0.432569885   0.436510353   0.003206646 -3.282555e-02  5.112715e-01  8.413064e-01 -1.724165e-01
23   1.622182713   1.592620094  -0.685154920  -0.068468717   0.188465379   0.142431797  -0.004229260   0.039466873   0.159616186 -2.482819e-02  6.765434e-01  7.288494e-01 -1.022306e-01
24   1.188667804   1.623968896  -1.055881737   0.075740150   0.009619539   0.246936531  -0.234070160  -0.059175571   0.283948969  8.001320e-02  9.253692e-01  3.705078e-01  3.694153e-03
ITEM: TIMESTEP
4000
ITEM: NUMBER OF ATOMS
24
ITEM: BOX BOUNDS pp pp pp
-8.0000000000000000e+02 8.0000000000000000e+02
-8.0000000000000000e+02 8.0000000000000000e+02
-8.0000000000000000e+02 8.0000000000000000e+02
ITEM: ATOMS id x y z vx vy vz angmomx angmomy angmomz c_quat[1] c_quat[2] c_quat[3] c_quat[4]
1   2.004330780   2.540812562  -1.130360879   0.151511212   0.257539421   0.167097229   0.154559095  -0.112248691  -0.091718246 -3.596341e-01  5.237783e-02  8.277416e-02  9.279377e-01
2   1.703410940   2.857401280  -0.759428318   0.325489834  -0.313483494  -0.046294714   0.008881406  -0.220170248  -0.342438118  7.403013e-01  1.137685e-02 -8.142973e-02 -6.672284e-01
3   1.296694249   2.759253574  -0.314434413  -0.517391224   0.074276989   0.141178358   0.064894079  -0.196089749  -0.117439315  8.273844e-01 -1.304292e-01  2.745895e-03 -5.462744e-01
4   1.074620724   2.657057852   0.184216307  -0.322063418   0.042618981  -0.459884954   0.149189882  -0.037282502   0.386746801  9.870458e-01 -3.037885e-02  6.701526e-02 -1.425714e-01
5   1.000823694   2.284806379   0.645802729   0.105089951  -0.104615242  -0.287657369   0.017793431  -0.279468421  -0.420110987  9.845154e-01 -1.761951e-02  8.195072e-02  1.539578e-01
6   1.190696240   1.986387947   1.098998248  -0.053770360   0.276985028   0.014409610   0.253551264   0.003707303  -0.144438298  8.988056e-01  5.485103e-03  1.451415e-01  4.135847e-01
7   1.510613947   1.862129439   1.495896396  -0.075042404   0.088933745   0.009296670  -0.574585383  -0.021134968   0.193614535  8.207266e-01 -2.369108e-02  1.809909e-01  5.413768e-01
8   1.992810360   1.920277434   1.784229916  -0.003029232  -0.093407157  -0.223827272   0.011475400  -0.082371132  -0.017123569  5.983980e-01  2.692877e-02  2.039613e-01  7.743349e-01
9   2.324706478   2.263007575   2.032702534   0.123521419   0.301244137  -0.211525706   0.263465665   0.161873918   0.192604302  2.702932e-01  1.033074e-01  2.090811e-01  9.341061e-01
10   2.540981622   2.744919418   2.272075851  -0.251806441   0.141234933  -0.071280282  -0.105147246   0.134880963  -0.051288734 -1.324936e-01  9.018802e-02  2.228478e-01  9.615874e-01
11   2.421365204   3.171076814   2.581156382   0.012126954  -0.124564847   0.276975806   0.280235389  -0.155699548   0.121830694 -2.895693e-01  1.003100e-01  1.733549e-01  9.359677e-01
12   2.150322488   3.566444223   2.858904052  -0.232482390  -0.192440095  -0.074880643  -0.240882546  -0.035421515  -0.307717106  7.186070e-01 -1.838236e-01 -1.698946e-01 -6.488056e-01
13   1.976755151   2.471049127   3.322858130  -0.270555856  -0.073414570  -0.070554720   0.004833879   0.016404371   0.026465184  5.065549e-02  6.605967e-01  7.149233e-01 -2.234517e-01
14   1.529933051   2.341275824   2.976784665   0.182419540  -0.152784356  -0.078631774   0.007499218   0.020231237  -0.192114751  1.020469e-01  9.379327e-01  2.784896e-01 -1.797558e-01
15   1.305394806   2.563955033   2.497821228  -0.219259969   0.098466020  -0.159754511   0.059517223  -0.449864880  -0.320680919  1.721118e-01  9.654490e-01  1.358223e-01 -1.408477e-01
16   1.149374278   2.696257554   1.971712503  -0.120765223   0.033749979   0.238576704   0.196815977   0.156030669  -0.153626696  1.222704e-01  9.643439e-01 -2.326587e-01 -3.099713e-02
17   1.293118308   2.966593289   1.460858231   0.195302346   0.053576864  -0.049178380  -0.194152763  -0.007036967  -0.122608229  9.866704e-02  8.453178e-01 -5.221309e-01  5.551529e-02
18   1.615072465   3.068616000   0.990045766   0.065033803  -0.276635722  -0.123397225  -0.130728017  -0.473217358  -0.151890765  9.522817e-02  6.571110e-01 -7.356041e-01  1.342508e-01
19   1.935336523   2.918992178   0.585966031  -0.038084659   0.055941557   0.234204910   0.350708725   0.059457984   0.033119908  1.156663e-01  5.532869e-01 -8.155499e-01  1.239890e-01
20   2.205174436   2.582683678   0.272705858  -0.244848756   0.031928331   0.090124683   0.110516854  -0.239366661   0.502725585 -6.678611e-02 -2.539671e-01  9.519398e-01 -1.576421e-01
21   2.216461690   2.096569192   0.022367510   0.300233877  -0.151115582   0.000158659  -0.106992635   0.557973248  -0.218097775 -3.503719e-02  9.540323e-02  9.760310e-01 -1.924427e-01
22   1.972185080   1.667570787  -0.308035987  -0.155404664  -0.168298010   0.020982590  -0.260612592  -0.076781226   0.310102535 -3.161424e-02  5.088132e-01  8.414361e-01 -1.791505e-01
23   1.622555750   1.595114025  -0.683280536   0.110943758   0.347959076   0.132120801   0.006865182  -0.253882641   0.285677231 -2.311533e-02  6.755473e-01  7.296994e-01 -1.031524e-01
24   1.189521421   1.624923277  -1.054404643  -0.001976969   0.080970933   0.319368076   0.219147849   0.231171437   0.299453087  8.021106e-02  9.245911e-01  3.724035e-01  3.612421e-03
ITEM: TIMESTEP
5000
ITEM: NUMBER OF ATOMS
24
ITEM: BOX BOUNDS pp pp pp
-8.0000000000000000e+02 8.0000000000000000e+02
-8.0000000000000000e+02 8.0000000000000000e+02
-8.0000000000000000e+02 8.0000000000000000e+02
ITEM: ATOMS id x y z vx vy vz angmomx angmomy angmomz c_quat[1] c_quat[2] c_quat[3] c_quat[4]
1   2.004384423   2.543555120  -1.127687190  -0.018679072   0.376312626   0.365930455   0.024088517  -0.110487824  -0.038741553 -3.588781e-01  4.979505e-02  8.512343e-02  9.281600e-01
2   1.706928393   2.855385554  -0.760332286   0.457189443  -0.075347499  -0.020392846  -0.102732019  -0.117699699  -0.380308210  7.381973e-01  1.126160e-02 -8.432799e-02 -6.691985e-01
3   1.293015386   2.759587836  -0.313447631  -0.367166648   0.135687926   0.021478964   0.175482338  -0.146935923  -0.125023817  8.261573e-01 -1.296065e-01  3.992256e-03 -5.483160e-01
4   1.071836007   2.657844162   0.180307056  -0.315527062   0.046999870  -0.418144150  -0.065095961  -0.274284288  -0.082177849  9.873785e-01 -2.934714e-02  6.473819e-02 -1.415322e-01
5   0.999446033   2.283979693   0.642325759  -0.290217269  -0.128039413  -0.424423193  -0.198638350  -0.379734085  -0.325280028  9.853580e-01 -1.894887e-02  7.898977e-02  1.499037e-01
6   1.189933993   1.987709759   1.098058315  -0.125544480   0.024970151  -0.180972070   0.260245500  -0.013091415   0.009840539  8.985368e-01  8.455606e-03  1.437432e-01  4.146058e-01
7   1.510467095   1.864715854   1.495649196  -0.068470276   0.220123338   0.045280947  -0.052323063   0.141006656   0.332908681  8.189927e-01 -2.494761e-02  1.829810e-01  5.432739e-01
8   1.994347897   1.917844261   1.782073270   0.073976294  -0.250890101  -0.192844575   0.151375106  -0.219338426  -0.146546435  5.995626e-01  2.803220e-02  2.030153e-01  7.736431e-01
9   2.326700997   2.265330577   2.031606049   0.267841582   0.151439616  -0.099721860  -0.218296460  -0.383836726   0.175096913  2.681881e-01  1.008941e-01  2.099488e-01  9.347818e-01
10   2.538670552   2.745867950   2.272303948  -0.193770074   0.224974136   0.034829269  -0.029871150   0.120078642   0.160944771 -1.326925e-01  9.131658e-02  2.239551e-01  9.611962e-01
11   2.421849044   3.169144688   2.583330695   0.084415240  -0.218859150   0.174712659   0.281333407  -0.342239557  -0.184488214 -2.887068e-01  9.676391e-02  1.696740e-01  9.372811e-01
12   2.148116297   3.564146056   2.858656776  -0.140573822  -0.342502456   0.163888718  -0.111996448   0.265475077   0.182878849  7.165184e-01 -1.858553e-01 -1.712260e-01 -6.501852e-01
13   1.973965878   2.470485362   3.321967079  -0.285145427  -0.142661093  -0.156297309  -0.311509466   0.147138432  -0.092978528  5.138932e-02  6.611392e-01  7.133644e-01 -2.266395e-01
14   1.530760322   2.340063518   2.977155853   0.047811982  -0.236208653   0.144861768   0.323188820  -0.122499601   0.170918621  1.012416e-01  9.381163e-01  2.783189e-01 -1.795176e-01
15   1.303836621   2.564469795   2.495262039  -0.106558654  -0.129332488  -0.275984758  -0.136585762   0.003860889  -0.232443478  1.727194e-01  9.659877e-01  1.324470e-01 -1.396193e-01
16   1.148299936   2.695731338   1.973630856  -0.128938540  -0.141612398   0.180691333  -0.196482138   0.446977209   0.088723122  1.235439e-01  9.640395e-01 -2.329674e-01 -3.302915e-02
17   1.294959906   2.966284707   1.461329686   0.174863615  -0.084996572  -0.074247437  -0.162907833  -0.232277421  -0.407030609  1.003031e-01  8.430612e-01 -5.252051e-01  5.785047e-02
18   1.615118217   3.065884790   0.989147291  -0.146430155  -0.264684667   0.008532894  -0.121398106  -0.095650492   0.264922040  9.444821e-02  6.567363e-01 -7.356690e-01  1.362644e-01
19   1.934644920   2.920447287   0.585909129  -0.057069072   0.131296383  -0.181657823   0.249622985   0.070163885  -0.351448302  1.157233e-01  5.519983e-01 -8.167922e-01  1.214763e-01
20   2.202514406   2.581613598   0.272758859  -0.180745918  -0.146920516  -0.101243236  -0.290438220  -0.125096920   0.272286800 -6.454082e-02 -2.580693e-01  9.508912e-01 -1.582423e-01
21   2.218100178   2.095136203   0.022708237   0.059480411  -0.270518624  -0.069868525  -0.343750412   0.270759025  -0.316038371 -3.921606e-02  9.823313e-02  9.749446e-01 -1.956922e-01
22   1.970808603   1.666152356  -0.307139112  -0.123969506  -0.048169693   0.164983565  -0.120733666   0.129949586   0.155563969 -3.111876e-02  5.065567e-01  8.423063e-01 -1.815269e-01
23   1.623373818   1.597533925  -0.682836151   0.083348474   0.169425018   0.057224483   0.111861808   0.125299568   0.143509014 -2.081368e-02  6.756043e-01  7.300964e-01 -1.004235e-01
24   1.189874406   1.623855091  -1.051143552  -0.069260128  -0.281061966   0.248843556   0.035100762   0.040525133  -0.072553756  7.807174e-02  9.247645e-01  3.724387e-01  2.221585e-03
ITEM: TIMESTEP
6000
ITEM: NUMBER OF ATOMS
24
ITEM: BOX BOUNDS pp pp pp
-8.0000000000000000e+02 8.0000000000000000e+02
-8.0000000000000000e+02 8.0000000000000000e+02
-8.0000000000000000e+02 8.0000000000000000e+02
ITEM: ATOMS id x y z vx vy vz angmomx angmomy angmomz c_quat[1] c_quat[2] c_quat[3] c_quat[4]
1   2.004719458   2.545513429  -1.123992653  -0.008032679   0.194714346   0.391873888  -0.118932121   0.131308969  -0.214081542 -3.563882e-01  4.971858e-02  8.518347e-02  9.291175e-01
2   1.711503771   2.854916719  -0.759566335   0.449286608  -0.059229073   0.109796441  -0.209376075  -0.150953613  -0.078779914  7.362352e-01  1.081405e-02 -8.536333e-02 -6.712332e-01
3   1.288824034   2.759705936  -0.314353528  -0.386783921  -0.037123824  -0.074374693  -0.137684565   0.299691182   0.282926268  8.264582e-01 -1.317165e-01  5.328984e-03 -5.473474e-01
4   1.069221054   2.658214368   0.177240285  -0.339389904   0.042195869  -0.104599620   0.054197060  -0.149808268  -0.310273871  9.871573e-01 -3.029323e-02  6.397047e-02 -1.432151e-01
5   0.997373576   2.283542323   0.638568307  -0.158331787  -0.088596135  -0.380385489  -0.303612041   0.496204495  -0.197430819  9.856199e-01 -2.084949e-02  7.858114e-02  1.481339e-01
6   1.187908264   1.989116311   1.096949904  -0.099090353   0.260942890  -0.070864163   0.272497114  -0.088804200  -0.104297881  8.989939e-01  1.229134e-02  1.431979e-01  4.137068e-01