24
Atoms. Timestep: 0
3 2.00532 2.5391 -1.1362
2 1.69781 2.86231 -0.753741
3 1.3102 2.75414 -0.315674
2 1.08055 2.6552 0.189475
4 0.999953 2.2819 0.650399
4 1.18814 1.97916 1.10375
1 1.51794 1.86085 1.49496
1 1.99269 1.92275 1.78902
3 2.32497 2.25507 2.03022
2 2.55021 2.74788 2.27113
3 2.42219 3.17611 2.57777
2 2.15126 3.5713 2.86068
3 1.98102 2.47499 3.32611
2 1.51936 2.34765 2.98283
3 1.30175 2.5622 2.49365
2 1.15434 2.70128 1.96599
4 1.29055 2.96828 1.46028
4 1.61898 3.07663 0.988436
1 1.94485 2.91799 0.59152
1 2.20605 2.58331 0.275378
3 2.21097 2.10502 0.0199684
2 1.97373 1.67198 -0.309147
3 1.62259 1.58931 -0.687747
2 1.1894 1.6238 -1.05731
24
Atoms. Timestep: 1000
3 2.00629 2.53696 -1.1332
2 1.69731 2.86192 -0.757972
3 1.30412 2.76272 -0.317348
2 1.07773 2.65385 0.193116
4 0.998687 2.28914 0.648773
4 1.19178 1.98191 1.10175
1 1.51514 1.86097 1.49508
1 1.99227 1.92322 1.78922
3 2.32271 2.25943 2.03375
2 2.54512 2.74897 2.26996
3 2.4201 3.17164 2.57843
2 2.15466 3.57279 2.85831
3 1.97959 2.47735 3.32661
2 1.52298 2.34329 2.98107
3 1.30724 2.55953 2.49888
2 1.15274 2.69737 1.96852
4 1.29071 2.96873 1.46493
4 1.61794 3.07451 0.989948
1 1.94053 2.9153 0.586381
1 2.20646 2.57894 0.275031
3 2.21029 2.10284 0.0215908
2 1.97337 1.66722 -0.310849
3 1.62315 1.59118 -0.687573
2 1.19166 1.62378 -1.05909
24
Atoms. Timestep: 2000
3 2.0061 2.53568 -1.12719
2 1.69961 2.86253 -0.760311
3 1.29622 2.771 -0.31434
2 1.07395 2.65594 0.192132
4 0.999602 2.2898 0.646732
4 1.19534 1.98478 1.09781
1 1.50875 1.86183 1.49497
1 1.9936 1.92271 1.7845
3 2.32071 2.26856 2.03791
2 2.53833 2.74261 2.27055
3 2.42036 3.16475 2.57907
2 2.15919 3.56984 2.85395
3 1.97911 2.47695 3.32632
2 1.53177 2.33552 2.97335
3 1.31352 2.56293 2.50594
2 1.15023 2.69176 1.97287
4 1.2919 2.97078 1.46313
4 1.61473 3.06732 0.991033
1 1.93102 2.91576 0.576687
1 2.20571 2.58129 0.271962
3 2.21215 2.0958 0.0222397
2 1.97301 1.66384 -0.313589
3 1.62307 1.59467 -0.685107
2 1.18925 1.62391 -1.05686
24
Atoms. Timestep: 3000
3 2.00398 2.5344 -1.12194
2 1.70508 2.85987 -0.762969
3 1.28498 2.7704 -0.314435
2 1.06792 2.66078 0.18631
4 1.00085 2.29153 0.644273
4 1.19799 1.99195 1.09285
1 1.49844 1.86326 1.49509
1 1.99497 1.91952 1.78152
3 2.31899 2.27353 2.039
2 2.53344 2.73938 2.27484
3 2.41901 3.1624 2.58162
2 2.15444 3.56668 2.85584
3 1.97704 2.46887 3.32142
2 1.53975 2.32906 2.96862
3 1.31759 2.56556 2.51105
2 1.14296 2.68544 1.97417
4 1.29216 2.96751 1.4613
4 1.61107 3.0597 0.990894
1 1.9178 2.92042 0.57222
1 2.20457 2.58234 0.267806
3 2.21868 2.08608 0.026093
2 1.97119 1.66043 -0.310315
3 1.62321 1.60088 -0.679503
2 1.18559 1.62339 -1.05329
24
Atoms. Timestep: 4000
3 2.00576 2.53752 -1.11908
2 1.71068 2.85526 -0.766494
3 1.27173 2.76992 -0.313411
2 1.06083 2.66352 0.174986
4 1.00174 2.29153 0.63653
4 1.19651 2.00068 1.09128
1 1.4927 1.86539 1.49729
1 1.99441 1.91415 1.77425
3 2.32141 2.27872 2.03905
2 2.52493 2.74254 2.27626
3 2.42092 3.15414 2.58768
2 2.14653 3.56142 2.85599
3 1.97702 2.46693 3.3176
2 1.54242 2.32197 2.95945
3 1.31534 2.56703 2.5086
2 1.13696 2.68313 1.98238
4 1.29754 2.96315 1.46132
4 1.60809 3.05227 0.990477
1 1.91269 2.92187 0.574765
1 2.20413 2.58187 0.266017
3 2.22812 2.08 0.0280218
2 1.96778 1.65302 -0.309711
3 1.62552 1.60942 -0.673561
2 1.1874 1.62583 -1.04892
24
Atoms. Timestep: 5000
3 2.0072 2.54368 -1.11096
2 1.72012 2.85213 -0.767349
3 1.26188 2.77076 -0.310937
2 1.05165 2.66709 0.163519
4 0.996924 2.28907 0.625799
4 1.19416 2.00424 1.08943
1 1.49141 1.87381 1.49624
1 1.99988 1.9061 1.7676
3 2.32663 2.28548 2.036
2 2.51932 2.7472 2.27787
3 2.42298 3.14563 2.59428
2 2.13883 3.55636 2.8556
3 1.97163 2.4669 3.3154
2 1.54113 2.31594 2.95902
3 1.31121 2.56837 2.50113
2 1.13285 2.68051 1.9877
4 1.30288 2.96226 1.46247
4 1.60887 3.04411 0.986337
1 1.90974 2.92681 0.574934
1 2.19601 2.57872 0.26579
3 2.2332 2.07619 0.0292805
2 1.96301 1.64641 -0.308591
3 1.62934 1.61777 -0.672194
2 1.1875 1.62176 -1.03893
24
Atoms. Timestep: 6000
3 2.00948 2.54738 -1.09949
2 1.733 2.85395 -0.762896
3 1.25047 2.7709 -0.314503
2 1.04301 2.66942 0.154825
4 0.989871 2.28785 0.614211
4 1.18778 2.00802 1.08712
1 1.49108 1.88091 1.49553
1 1.99825 1.89744 1.76151
3 2.33151 2.29046 2.03588
2 2.51614 2.75527 2.28026
3 2.42602 3.13644 2.60139
2 2.13716 3.54547 2.86254
3 1.97081 2.46431 3.31309
2 1.54247 2.30665 2.96522
3 1.31258 2.56359 2.49236
2 1.1286 2.67746 1.98926
4 1.30605 2.96184 1.46203
4 1.60855 3.03966 0.99205
1 1.907 2.93004 0.573159
1 2.18856 2.57437 0.264092
3 2.23512 2.06906 0.0256131
2 1.95919 1.64398 -0.3074
3 1.62882 1.62778 -0.671928
2 1.18628 1.61176 -1.03697
24
Atoms. Timestep: 7000
3 2.01506 2.55057 -1.09023
2 1.74557 2.85782 -0.76049
3 1.23962 2.76937 -0.318747
2 1.03313 2.67347 0.149468
4 0.982279 2.28826 0.602857
4 1.18302 2.01666 1.08602
1 1.48978 1.88625 1.49241
1 2.00489 1.88432 1.75908
3 2.33524 2.29108 2.03677
2 2.50939 2.76414 2.27818
3 2.42804 3.12956 2.60858
2 2.13852 3.53416 2.87122
3 1.97659 2.46353 3.31117
2 1.54739 2.29987 2.9704
3 1.31711 2.5589 2.48804
2 1.1217 2.67282 1.99166
4 1.30713 2.95889 1.46856
4 1.61211 3.03873 1.00044
1 1.90798 2.93021 0.57457
1 2.18385 2.57312 0.261344
3 2.23082 2.06365 0.0213511
2 1.95938 1.64518 -0.304267
3 1.62194 1.63138 -0.674866
2 1.18599 1.60651 -1.04025
24
Atoms. Timestep: 8000
3 2.02048 2.5527 -1.08678
2 1.75637 2.8635 -0.758225
3 1.23117 2.76758 -0.319866
2 1.02631 2.68101 0.141558
4 0.97494 2.28632 0.588205
4 1.18113 2.02241 1.08543
1 1.49155 1.88711 1.49213
1 2.00799 1.87121 1.75797
3 2.33867 2.29078 2.0419
2 2.50317 2.7682 2.27399
3 2.42712 3.12434 2.6209
2 2.13694 3.52977 2.88273
3 1.97724 2.46235 3.30989
2 1.55126 2.29422 2.97474
3 1.32157 2.54972 2.48665
2 1.11701 2.66035 1.99115
4 1.31197 2.9516 1.47258
4 1.61922 3.03648 1.00842
1 1.9165 2.93311 0.574454
1 2.179 2.57173 0.259243
3 2.22267 2.05988 0.0169133
2 1.96133 1.64661 -0.300788
3 1.61999 1.62684 -0.67767
2 1.18502 1.60094 -1.04258
24
Atoms. Timestep: 9000
3 2.02061 2.54992 -1.08494
2 1.76488 2.8716 -0.756086
3 1.2255 2.76629 -0.320863
2 1.02448 2.69449 0.13544
4 0.967577 2.28905 0.582849
4 1.1784 2.0209 1.08289
1 1.48947 1.88652 1.49823
1 2.00449 1.86293 1.75827
3 2.3387 2.287 2.04451
2 2.50257 2.77027 2.26723
3 2.42405 3.11839 2.63192
2 2.13133 3.53122 2.89622
3 1.97833 2.46179 3.31211
2 1.55153 2.28771 2.97779
3 1.32728 2.54441 2.48951
2 1.11333 2.65435 1.98825
4 1.3136 2.95131 1.47897
4 1.62711 3.04062 1.01518
1 1.92247 2.93147 0.57648
1 2.17657 2.57145 0.260752
3 2.21896 2.05269 0.0134491
2 1.95656 1.65078 -0.300163
3 1.6186 1.62445 -0.675252
2 1.18854 1.59471 -1.04272
24
Atoms. Timestep: 10000
3 2.02099 2.5404 -1.08129
2 1.77201 2.8858 -0.752718
3 1.22168 2.75936 -0.322666
2 1.01623 2.70547 0.129341
4 0.965017 2.29204 0.583585
4 1.17363 2.02098 1.07929
1 1.48902 1.88785 1.49666
1 2.00014 1.86041 1.75741
3 2.33419 2.28123 2.04317
2 2.5059 2.77262 2.26267
3 2.42077 3.11737 2.64118
2 2.12794 3.53355 2.90865
3 1.97015 2.46452 3.31633
2 1.54978 2.27956 2.97852
3 1.33115 2.54217 2.49919
2 1.11002 2.64744 1.9851
4 1.31617 2.95182 1.48341
4 1.63563 3.04784 1.02371
1 1.92136 2.92467 0.578135
1 2.17175 2.56795 0.261766
3 2.21827 2.0392 0.00752027
2 1.95449 1.65255 -0.307356
3 1.61619 1.61658 -0.669572
2 1.1886 1.58985 -1.03916
24
Atoms. Timestep: 11000
3 2.02638 2.53686 -1.08163
2 1.7783 2.89511 -0.745956
3 1.22294 2.75422 -0.329443
2 1.01102 2.71363 0.126873
4 0.958614 2.29765 0.57825
4 1.16691 2.0244 1.07396
1 1.48743 1.88718 1.49785
1 1.99305 1.86227 1.75544
3 2.33714 2.27665 2.03794
2 2.50793 2.7781 2.26118
3 2.41827 3.11662 2.64069
2 2.12787 3.53483 2.9166
3 1.96141 2.46683 3.32014
2 1.55276 2.27167 2.97858
3 1.33227 2.54279 2.50513
2 1.10813 2.63804 1.97877
4 1.31969 2.94932 1.49028
4 1.64762 3.05749 1.03309
1 1.91632 2.92076 0.575987
1 2.16372 2.56529 0.268528
3 2.21911 2.03489 -0.000520273
2 1.95666 1.6523 -0.311877
3 1.61618 1.60914 -0.667954
2 1.18913 1.58839 -1.03503
24
Atoms. Timestep: 12000
3 2.03197 2.53916 -1.08309
2 1.78686 2.89803 -0.737459
3 1.22673 2.74907 -0.331335
2 1.01045 2.7147 0.127408
4 0.958161 2.30231 0.57102
4 1.16705 2.03374 1.07178
1 1.48673 1.88632 1.49789
1 1.98689 1.85982 1.75752
3 2.34767 2.27136 2.02952
2 2.51323 2.78111 2.25869
3 2.41079 3.1106 2.64211
2 2.1291 3.53505 2.92291
3 1.95657 2.46903 3.32276
2 1.56238 2.26534 2.98014
3 1.33538 2.54598 2.50876
2 1.10739 2.62793 1.9721
4 1.32111 2.94347 1.49595
4 1.65756 3.06641 1.03704
1 1.9092 2.92252 0.578588
1 2.15993 2.56277 0.269385
3 2.21793 2.03763 -0.0141651
2 1.95555 1.65834 -0.313571
3 1.61283 1.60689 -0.669904
2 1.19104 1.58324 -1.02822
24
Atoms. Timestep: 13000
3 2.04001 2.54157 -1.0848
2 1.79442 2.89748 -0.729311
3 1.23241 2.74347 -0.330898
2 1.00839 2.70977 0.12488
4 0.956794 2.30433 0.562196
4 1.1691 2.04081 1.07265
1 1.4828 1.88828 1.49647
1 1.98537 1.86301 1.76126
3 2.3573 2.27357 2.02237
2 2.51685 2.78474 2.25341
3 2.40244 3.10743 2.64075
2 2.13222 3.5351 2.93299
3 1.95629 2.46915 3.32621
2 1.57609 2.25571 2.9753
3 1.3459 2.55257 2.51548
2 1.11324 2.62211 1.96789
4 1.31854 2.94088 1.50274
4 1.66664 3.07843 1.04221
1 1.90636 2.92511 0.581138
1 2.15287 2.56243 0.268418
3 2.21845 2.0397 -0.0273977
2 1.9576 1.66861 -0.318861
3 1.60761 1.60655 -0.67447
2 1.1997 1.58146 -1.01942
24
Atoms. Timestep: 14000
3 2.04984 2.54478 -1.08244
2 1.79978 2.89509 -0.720041
3 1.23979 2.74066 -0.335999
2 1.00894 2.70521 0.126803
4 0.953974 2.30369 0.551085
4 1.17131 2.04773 1.07576
1 1.47766 1.89129 1.49589
1 1.98288 1.86773 1.76718
3 2.3625 2.27571 2.02248
2 2.51659 2.79033 2.25449
3 2.39857 3.09895 2.63517
2 2.13179 3.53025 2.94772
3 1.95567 2.46518 3.32326
2 1.58526 2.2554 2.96671
3 1.35325 2.55812 2.52388
2 1.11739 2.61959 1.96854
4 1.31756 2.9432 1.5048
4 1.66854 3.09149 1.05282
1 1.90859 2.93353 0.583074
1 2.14284 2.55936 0.272841
3 2.21471 2.0377 -0.042245
2 1.95496 1.67994 -0.321639
3 1.60701 1.60348 -0.671608
2 1.2049 1.57748 -1.01109
24
Atoms. Timestep: 15000
3 2.05687 2.54506 -1.08287
2 1.80249 2.89574 -0.715544
3 1.23888 2.73945 -0.339328
2 1.01112 2.69794 0.128518
4 0.949045 2.30508 0.540107
4 1.17319 2.04696 1.07287
1 1.47308 1.89516 1.49623
1 1.98355 1.87156 1.77162
3 2.36626 2.27788 2.02337
2 2.51413 2.79256 2.25676
3 2.39477 3.09334 2.62899
2 2.12918 3.52593 2.96336
3 1.95537 2.45885 3.32217
2 1.59611 2.25203 2.96534
3 1.35905 2.55744 2.52588
2 1.12316 2.61717 1.96611
4 1.31254 2.94453 1.50652
4 1.6682 3.10268 1.06466
1 1.91169 2.94854 0.588563
1 2.1335 2.55413 0.280964
3 2.2089 2.03684 -0.05704
2 1.95833 1.68777 -0.323119
3 1.60532 1.5967 -0.671241
2 1.21052 1.57321 -1.00132
24
Atoms. Timestep: 16000
3 2.05679 2.54206 -1.08232
2 1.81166 2.89439 -0.712915
3 1.23142 2.73905 -0.336123
2 1.01199 2.69143 0.128154
4 0.945914 2.30605 0.532776
4 1.17573 2.03671 1.06985
1 1.47627 1.89621 1.50025
1 1.97928 1.87013 1.77906
3 2.37707 2.27542 2.02577
2 2.50933 2.79356 2.25427
3 2.38747 3.08542 2.62808
2 2.13071 3.52362 2.97458
3 1.95 2.45409 3.32361
2 1.60772 2.25208 2.96639
3 1.36514 2.55332 2.52334
2 1.12961 2.61542 1.96507
4 1.30667 2.94204 1.5053
4 1.66203 3.11136 1.07334
1 1.91268 2.96319 0.597607
1 2.1287 2.55203 0.290056
3 2.21166 2.04089 -0.068437
2 1.96521 1.69501 -0.32261
3 1.60103 1.59468 -0.673655
2 1.21553 1.5706 -0.99354
24
Atoms. Timestep: 17000
3 2.06014 2.54025 -1.08743
2 1.82136 2.89362 -0.706847
3 1.22498 2.73325 -0.334279
2 1.01171 2.68607 0.125456
4 0.945368 2.30341 0.529735
4 1.1806 2.02592 1.07217
1 1.48273 1.89393 1.50861
1 1.97105 1.86249 1.77948
3 2.38505 2.27195 2.02961
2 2.50873 2.7984 2.25028
3 2.38423 3.07781 2.62802
2 2.13045 3.51743 2.97911
3 1.94455 2.44941 3.3306
2 1.61729 2.25546 2.96968
3 1.37492 2.54896 2.52282
2 1.13796 2.61847 1.97239
4 1.29869 2.93626 1.50287
4 1.64985 3.11515 1.08067
1 1.91055 2.98221 0.60755
1 2.12677 2.55718 0.298416
3 2.21521 2.04589 -0.0809343
2 1.97283 1.70056 -0.322069
3 1.59897 1.59063 -0.672231
2 1.21697 1.57037 -0.987529
24
Atoms. Timestep: 18000
3 2.06757 2.54288 -1.09525
2 1.83154 2.88522 -0.700658
3 1.21802 2.72083 -0.33721
2 1.0127 2.68103 0.115386
4 0.945206 2.30252 0.524513
4 1.18381 2.01743 1.0727
1 1.48457 1.89757 1.51571
1 1.96066 1.85645 1.78305
3 2.38997 2.26812 2.0337
2 2.5033 2.80541 2.25303
3 2.38184 3.06894 2.62596
2 2.12539 3.50861 2.97893
3 1.94018 2.44462 3.3398
2 1.61816 2.26129 2.97183
3 1.38319 2.54592 2.52804
2 1.14859 2.61974 1.97233
4 1.29588 2.92935 1.50036
4 1.64231 3.11067 1.08798
1 1.90872 2.99745 0.62017
1 2.12063 2.56538 0.30699
3 2.22064 2.04924 -0.0958923
2 1.9813 1.70772 -0.324916
3 1.59337 1.59168 -0.668939
2 1.2146 1.57322 -0.982371
24
Atoms. Timestep: 19000
3 2.07408 2.54631 -1.10722
2 1.83792 2.87871 -0.690359
3 1.21399 2.71144 -0.346604
2 1.01363 2.68579 0.106563
4 0.946259 2.30044 0.526607
4 1.1926 2.00938 1.07339
1 1.48051 1.90608 1.5193
1 1.95243 1.85087 1.78432
3 2.39629 2.26658 2.04034
2 2.49639 2.81892 2.25539
3 2.37723 3.06203 2.62351
2 2.12056 3.50474 2.97872
3 1.94104 2.44067 3.34913
2 1.619 2.2637 2.97457
3 1.39102 2.55048 2.52881
2 1.16213 2.61969 1.97592
4 1.29631 2.92146 1.49998
4 1.63422 3.10517 1.09461
1 1.90873 3.00762 0.629061
1 2.11115 2.57885 0.311102
3 2.22417 2.05372 -0.107806
2 1.99129 1.71389 -0.328114
3 1.59094 1.58949 -0.665384
2 1.21767 1.57866 -0.977931
24
Atoms. Timestep: 20000
3 2.07676 2.54571 -1.12044
2 1.83586 2.87479 -0.674141
3 1.21167 2.70606 -0.351114
2 1.01394 2.68734 0.100999
4 0.953395 2.29778 0.525367
4 1.20203 2.00683 1.07106
1 1.47563 1.91314 1.52402
1 1.94181 1.85197 1.78348
3 2.3992 2.26549 2.04555
2 2.49298 2.82803 2.25482
3 2.37137 3.05445 2.62661
2 2.11954 3.50468 2.98151
3 1.94745 2.43544 3.35592
2 1.61787 2.26097 2.98032
3 1.39772 2.54805 2.5296
2 1.17276 2.62256 1.9795
4 1.30044 2.91555 1.50148
4 1.62845 3.10337 1.09915
1 1.91158 3.01215 0.6364
1 2.10603 2.58851 0.311075
3 2.22939 2.05694 -0.111126
2 1.99997 1.72218 -0.328652
3 1.59015 1.58989 -0.663159
2 1.21994 1.58138 -0.971589
24
Atoms. Timestep: 21000
3 2.08313 2.5477 -1.129
2 1.8267 2.86803 -0.657136
3 1.20756 2.69973 -0.351722
2 1.0165 2.69053 0.0972924
4 0.95722 2.30282 0.52492
4 1.20587 2.00819 1.06555
1 1.47679 1.91686 1.53259
1 1.93254 1.85477 1.7878
3 2.40049 2.26332 2.05027
2 2.48928 2.83469 2.25435
3 2.36663 3.05186 2.63061
2 2.11825 3.50774 2.98342
3 1.95045 2.43286 3.35456
2 1.61898 2.26001 2.98864
3 1.40255 2.54431 2.52832
2 1.18079 2.62434 1.98713
4 1.30152 2.9134 1.51009
4 1.62599 3.10296 1.10761
1 1.91302 3.01419 0.639079
1 2.10622 2.59631 0.303093
3 2.23758 2.05981 -0.113481
2 2.0103 1.72735 -0.328345
3 1.59244 1.59121 -0.662425
2 1.22334 1.57647 -0.968736
24
Atoms. Timestep: 22000
3 2.08866 2.55314 -1.13854
2 1.8217 2.86165 -0.642574
3 1.20413 2.69478 -0.348889
2 1.01312 2.6879 0.0995521
4 0.962002 2.30844 0.525336
4 1.21024 2.01408 1.06118
1 1.47697 1.91802 1.53648
1 1.92734 1.86162 1.79003
3 2.39807 2.26092 2.04754
2 2.48871 2.83336 2.25089
3 2.35773 3.05207 2.62633
2 2.1135 3.50898 2.98685
3 1.95187 2.42644 3.35134
2 1.61856 2.25914 2.99627
3 1.40549 2.54342 2.52775
2 1.18899 2.62247 1.99412
4 1.30312 2.91065 1.5196
4 1.62201 3.10152 1.11198
1 1.91519 3.01518 0.640902
1 2.10844 2.60762 0.296698
3 2.24233 2.06165 -0.113356
2 2.01253 1.7312 -0.327582
3 1.59206 1.58802 -0.659173
2 1.23055 1.57403 -0.96824
24
Atoms. Timestep: 23000
3 2.09257 2.56316 -1.14487
2 1.81822 2.85679 -0.631862
3 1.20453 2.69364 -0.343032
2 1.01177 2.67686 0.105305
4 0.963491 2.30962 0.537431
4 1.21877 2.02427 1.05476
1 1.47971 1.9139 1.53875
1 1.92695 1.86486 1.78881
3 2.39526 2.25831 2.0458
2 2.48347 2.8265 2.24976
3 2.34916 3.05314 2.62743
2 2.11252 3.5075 2.98787
3 1.95324 2.41781 3.34943
2 1.62052 2.257 3.00105
3 1.40757 2.5424 2.52105
2 1.19998 2.61809 2.00184
4 1.30651 2.91146 1.527
4 1.61768 3.09643 1.11485
1 1.91993 3.02284 0.646894
1 2.11158 2.61728 0.293692
3 2.24834 2.06194 -0.111678
2 2.0143 1.73298 -0.330746
3 1.58625 1.58286 -0.657378
2 1.2363 1.56944 -0.969907
24
Atoms. Timestep: 24000
3 2.09229 2.57701 -1.14879
2 1.81575 2.84525 -0.628955
3 1.20546 2.68823 -0.336964
2 1.01377 2.66604 0.11112
4 0.962416 2.30635 0.545844
4 1.22821 2.03661 1.05247
1 1.48289 1.90719 1.53999
1 1.92517 1.86783 1.78484
3 2.40122 2.25809 2.0445
2 2.48287 2.82053 2.25207
3 2.34715 3.0564 2.63166
2 2.11286 3.50613 2.98349
3 1.95847 2.41199 3.35138
2 1.62366 2.2529 3.00673
3 1.41098 2.5465 2.51632
2 1.20326 2.61973 2.00933
4 1.31251 2.91383 1.52832
4 1.61264 3.08867 1.11629
1 1.9312 3.02799 0.651757
1 2.11231 2.61729 0.293235
3 2.25631 2.06081 -0.110729
2 2.01157 1.7324 -0.336176
3 1.58544 1.5814 -0.650518
2 1.24219 1.56313 -0.968283
24
Atoms. Timestep: 25000
3 2.09612 2.59006 -1.14393
2 1.81732 2.83376 -0.630571
3 1.20134 2.68035 -0.334378
2 1.0127 2.66131 0.116147
4 0.967823 2.30564 0.547864
4 1.23314 2.04805 1.05591
1 1.48444 1.90364 1.54596
1 1.92674 1.87864 1.78077
3 2.40568 2.26123 2.03955
2 2.48377 2.81676 2.25929
3 2.34475 3.05392 2.63542
2 2.11397 3.50632 2.97889
3 1.95865 2.41236 3.35602
2 1.62711 2.25589 3.01063
3 1.41366 2.55448 2.51048
2 1.20564 2.62473 2.02174
4 1.31841 2.91411 1.52499
4 1.61315 3.0831 1.11296
1 1.94076 3.03769 0.651992
1 2.10784 2.61395 0.292683
3 2.26222 2.06483 -0.109073
2 2.01138 1.73111 -0.337242
3 1.58265 1.5777 -0.643698
2 1.24247 1.55577 -0.969813
24
Atoms. Timestep: 26000
3 2.09708 2.59909 -1.14543
2 1.8197 2.82592 -0.637311
3 1.19356 2.6724 -0.328751
2 1.00955 2.66045 0.117
4 0.98244 2.30478 0.547086
4 1.23451 2.05909 1.05896
1 1.48417 1.90183 1.54601
1 1.93048 1.89276 1.78088
3 2.40458 2.2653 2.03905
2 2.48243 2.8148 2.26901
3 2.33898 3.05905 2.6341
2 2.11187 3.51275 2.97996
3 1.95653 2.41425 3.35861
2 1.63076 2.2606 3.01577
3 1.41757 2.55925 2.50532
2 1.20697 2.63119 2.02181
4 1.32533 2.91284 1.52015
4 1.61963 3.07686 1.10878
1 1.94095 3.04124 0.650484
1 2.10438 2.6088 0.292086
3 2.2696 2.06794 -0.109596
2 2.01262 1.73821 -0.334428
3 1.58049 1.5794 -0.636588
2 1.23859 1.55086 -0.973043
24
Atoms. Timestep: 27000
3 2.09864 2.604 -1.15042
2 1.82122 2.82151 -0.645172
3 1.18534 2.66975 -0.326017
2 1.00702 2.66183 0.118579
4 0.989791 2.30168 0.547939
4 1.23543 2.0667 1.0612
1 1.48569 1.89938 1.5484
1 1.93267 1.90773 1.77964
3 2.4025 2.26179 2.03773
2 2.48293 2.81394 2.27633
3 2.3352 3.06329 2.6274
2 2.10898 3.5207 2.97876
3 1.95266 2.41698 3.36033
2 1.63398 2.25995 3.02016
3 1.42053 2.56163 2.50641
2 1.21495 2.63985 2.02418
4 1.33652 2.90959 1.52156
4 1.62109 3.0702 1.10725
1 1.93379 3.04267 0.652515
1 2.10141 2.60839 0.29193
3 2.27565 2.07314 -0.108274
2 2.01382 1.74472 -0.330562
3 1.57351 1.58332 -0.631591
2 1.23354 1.54966 -0.980838
24
Atoms. Timestep: 28000
3 2.0983 2.60602 -1.15278
2 1.8233 2.81455 -0.651283
3 1.18511 2.66989 -0.325535
2 1.00365 2.66014 0.123198
4 0.990234 2.30376 0.546859
4 1.23167 2.06775 1.0671
1 1.4903 1.89716 1.54941
1 1.93073 1.92108 1.77323
3 2.40673 2.25322 2.03634
2 2.48185 2.81633 2.27898
3 2.33492 3.07101 2.6158
2 2.10784 3.52594 2.9763
3 1.95459 2.41737 3.36026
2 1.63298 2.25953 3.02012
3 1.42132 2.56209 2.50984
2 1.22242 2.6468 2.02747
4 1.34816 2.9054 1.52214
4 1.6234 3.06725 1.10666
1 1.93379 3.04419 0.656389
1 2.10353 2.60819 0.289512
3 2.28249 2.07234 -0.105615
2 2.01605 1.75033 -0.329551
3 1.56965 1.59126 -0.628068
2 1.23027 1.55075 -0.986128
24
Atoms. Timestep: 29000
3 2.10238 2.60993 -1.14819
2 1.82351 2.80797 -0.653719
3 1.18528 2.6705 -0.328286
2 1.00525 2.65366 0.123516
4 0.992417 2.3032 0.550326
4 1.23219 2.06738 1.07352
1 1.49746 1.9055 1.55158
1 1.92895 1.93516 1.77011
3 2.4118 2.24487 2.03428
2 2.47931 2.81695 2.27519
3 2.33417 3.08111 2.60833
2 2.10638 3.53409 2.97658
3 1.96216 2.41596 3.36355
2 1.6301 2.2624 3.01914
3 1.42017 2.55973 2.51216
2 1.23105 2.65424 2.032
4 1.36296 2.90365 1.52121
4 1.62875 3.06929 1.0985
1 1.93557 3.0453 0.663763
1 2.10608 2.6085 0.28859
3 2.28906 2.06959 -0.101963
2 2.02389 1.75847 -0.330058
3 1.55935 1.59569 -0.625428
2 1.23126 1.54922 -0.998519
24
Atoms. Timestep: 30000
3 2.10994 2.6117 -1.14222
2 1.82422 2.80282 -0.658004
3 1.18368 2.66917 -0.327809
2 1.01028 2.64768 0.119642
4 0.999635 2.30397 0.552195
4 1.22976 2.06625 1.07695
1 1.50037 1.91281 1.55513
1 1.92758 1.94571 1.76568
3 2.41197 2.238 2.03711
2 2.48421 2.81603 2.26998
3 2.33986 3.08644 2.60308
2 2.10652 3.54103 2.97781
3 1.96986 2.41725 3.36452
2 1.63202 2.26616 3.0193
3 1.41464 2.55667 2.5158
2 1.24007 2.66332 2.0364
4 1.36817 2.90347 1.51902
4 1.63145 3.06978 1.09541
1 1.93802 3.04786 0.672796
1 2.10828 2.61106 0.287543
3 2.28879 2.06863 -0.104309
2 2.03008 1.75769 -0.32671
3 1.54624 1.60116 -0.622611
2 1.23271 1.54931 -1.00964
24
Atoms. Timestep: 31000
3 2.11489 2.61392 -1.13816
2 1.82434 2.79605 -0.66153
3 1.18177 2.66674 -0.327066
2 1.01205 2.6415 0.120599
4 1.00278 2.30075 0.553521
4 1.22983 2.06418 1.07741
1 1.5061 1.91402 1.55474
1 1.92631 1.95571 1.75943
3 2.41264 2.22956 2.04175
2 2.48348 2.81494 2.27
3 2.34902 3.08827 2.59884
2 2.10256 3.54867 2.97802
3 1.97445 2.41838 3.37013
2 1.63607 2.27413 3.02319
3 1.40995 2.55051 2.51863
2 1.2425 2.67452 2.03644
4 1.37216 2.90442 1.52071
4 1.63316 3.06879 1.09514
1 1.94505 3.05289 0.679961
1 2.11353 2.60676 0.288077
3 2.28509 2.07022 -0.102489
2 2.03532 1.74908 -0.325918
3 1.53585 1.60475 -0.617566
2 1.23054 1.54744 -1.01787
24
Atoms. Timestep: 32000
3 2.11908 2.61439 -1.13321
2 1.8288 2.78743 -0.66141
3 1.17773 2.66768 -0.32449
2 1.00614 2.63838 0.122639
4 1.0017 2.29858 0.555598
4 1.22925 2.06482 1.07092
1 1.50811 1.91214 1.55728
1 1.92927 1.95829 1.75103
3 2.41388 2.22217 2.03638
2 2.48671 2.80983 2.27408
3 2.35308 3.0885 2.59603
2 2.10227 3.55165 2.97807
3 1.97775 2.42075 3.37979
2 1.63457 2.28461 3.0309
3 1.40399 2.54208 2.52315
2 1.23934 2.68327 2.0369
4 1.37266 2.90198 1.52549
4 1.63059 3.06231 1.09898
1 1.95038 3.05517 0.681786
1 2.11711 2.60236 0.287642
3 2.27702 2.07035 -0.0979721
2 2.0327 1.73681 -0.3228
3 1.52462 1.60361 -0.618306
2 1.23112 1.55289 -1.02385
24
Atoms. Timestep: 33000
3 2.12163 2.6163 -1.12179
2 1.82717 2.77442 -0.656058
3 1.17727 2.67346 -0.316805
2 0.997187 2.63973 0.120135
4 0.999355 2.30173 0.56144
4 1.22562 2.06519 1.06222
1 1.50772 1.90428 1.56614
1 1.93486 1.96146 1.7437
3 2.4184 2.22051 2.03242
2 2.49348 2.80563 2.27916
3 2.35793 3.09147 2.5969
2 2.10382 3.55002 2.97816
3 1.9799 2.42748 3.38814
2 1.63352 2.29528 3.03379
3 1.39543 2.53519 2.52914
2 1.22986 2.68807 2.0338
4 1.37076 2.89859 1.53143
4 1.62389 3.05492 1.10183
1 1.95266 3.05171 0.685843
1 2.11891 2.60115 0.288239
3 2.26307 2.07 -0.0917849
2 2.03005 1.72865 -0.321705
3 1.51678 1.60499 -0.621136
2 1.23157 1.55646 -1.02846
24
Atoms. Timestep: 34000
3 2.12056 2.62049 -1.11433
2 1.82654 2.76989 -0.647881
3 1.17626 2.68021 -0.311601
2 0.988294 2.64797 0.11283
4 0.996912 2.29933 0.568391
4 1.22076 2.06337 1.0573
1 1.5016 1.89431 1.58214
1 1.9458 1.96133 1.73619
3 2.41659 2.2258 2.02797
2 2.49613 2.80026 2.28244
3 2.36349 3.09763 2.60244
2 2.10627 3.55408 2.97692
3 1.98141 2.43457 3.39258
2 1.63035 2.30146 3.03663
3 1.38628 2.53666 2.53339
2 1.22095 2.69001 2.03303
4 1.35987 2.89206 1.5336
4 1.61681 3.05099 1.10583
1 1.9548 3.0466 0.690277
1 2.1167 2.59844 0.288787
3 2.24808 2.07058 -0.0903082
2 2.02743 1.72449 -0.321494
3 1.51064 1.60621 -0.617525
2 1.23083 1.56014 -1.03235
24
Atoms. Timestep: 35000
3 2.12343 2.62638 -1.10645
2 1.82417 2.76802 -0.636926
3 1.17565 2.68734 -0.308702
2 0.984173 2.656 0.105734
4 0.995282 2.29803 0.573418
4 1.2145 2.06248 1.05658
1 1.49311 1.88713 1.59798
1 1.95495 1.95882 1.73112
3 2.41721 2.226 2.02684
2 2.49849 2.79368 2.28662
3 2.36523 3.10279 2.6087
2 2.10884 3.56346 2.97621
3 1.98316 2.44238 3.39585
2 1.62933 2.30691 3.04027
3 1.3746 2.53894 2.53546
2 1.21234 2.68905 2.03256
4 1.34775 2.89061 1.53876
4 1.61068 3.03871 1.11325
1 1.95527 3.04567 0.695778
1 2.11229 2.59332 0.289341
3 2.23617 2.07261 -0.0911022
2 2.02607 1.72373 -0.318849
3 1.50457 1.60763 -0.616883
2 1.22435 1.5637 -1.03823
24
Atoms. Timestep: 36000
3 2.12171 2.63445 -1.09731
2 1.82065 2.76608 -0.628363
3 1.17494 2.69423 -0.303319
2 0.98315 2.65765 0.0983794
4 0.991573 2.29444 0.573394
4 1.2165 2.06516 1.05539
1 1.48495 1.88845 1.60808
1 1.96296 1.96006 1.73198
3 2.4111 2.23133 2.03001
2 2.50451 2.79023 2.29148
3 2.3642 3.10918 2.61244
2 2.10907 3.57318 2.97503
3 1.98499 2.4513 3.39247
2 1.62781 2.31764 3.0497
3 1.36609 2.54176 2.53444
2 1.21 2.68977 2.02384
4 1.33294 2.88601 1.537
4 1.59926 3.02149 1.12564
1 1.95555 3.04679 0.696992
1 2.11284 2.58871 0.290989
3 2.2232 2.07042 -0.0948247
2 2.01902 1.72241 -0.314104
3 1.49672 1.61137 -0.617426
2 1.21422 1.56553 -1.04805
24
Atoms. Timestep: 37000
3 2.12319 2.63818 -1.0901
2 1.82202 2.76238 -0.623253
3 1.17648 2.69765 -0.301445
2 0.984404 2.65364 0.0920284
4 0.99004 2.29361 0.572153
4 1.22263 2.0716 1.05026
1 1.47555 1.89681 1.61485
1 1.96962 1.95711 1.73449
3 2.40385 2.24334 2.03531
2 2.51101 2.79208 2.2921
3 2.35945 3.11644 2.61085
2 2.10875 3.58239 2.97562
3 1.98556 2.45878 3.38765
2 1.62779 2.33613 3.0575
3 1.36038 2.54106 2.53089
2 1.21116 2.6996 2.01054
4 1.32008 2.88711 1.5366
4 1.59188 3.00708 1.1342
1 1.95853 3.04874 0.700456
1 2.1157 2.57644 0.289112
3 2.21415 2.06908 -0.0950433
2 2.00988 1.72002 -0.310382
3 1.48855 1.61652 -0.617709
2 1.20377 1.56956 -1.05154
24
Atoms. Timestep: 38000
3 2.12594 2.6427 -1.07904
2 1.82522 2.75404 -0.625036
3 1.17955 2.70328 -0.301336
2 0.985904 2.65185 0.0929643
4 0.994369 2.29456 0.575123
4 1.22884 2.08025 1.04592
1 1.47213 1.90113 1.62425
1 1.97976 1.95571 1.73707
3 2.40037 2.25462 2.03574
2 2.5124 2.79649 2.28843
3 2.35781 3.12785 2.60577
2 2.10959 3.58627 2.97985
3 1.98294 2.4612 3.38361
2 1.62403 2.35181 3.06001
3 1.35626 2.54264 2.52547
2 1.20628 2.71047 1.99847
4 1.3106 2.88736 1.53189
4 1.58648 2.99225 1.14083
1 1.96056 3.05004 0.705619
1 2.11833 2.57284 0.290321
3 2.20187 2.06782 -0.0960233
2 2.00217 1.71468 -0.303542
3 1.48254 1.62253 -0.61948
2 1.19649 1.57102 -1.05005
24
Atoms. Timestep: 39000
3 2.12766 2.64415 -1.06714
2 1.82448 2.7405 -0.622828
3 1.17571 2.70745 -0.308619
2 0.989544 2.64555 0.0894678
4 0.994269 2.30115 0.572363
4 1.23312 2.08545 1.04599
1 1.47038 1.90714 1.6299
1 1.98455 1.95604 1.73707
3 2.39573 2.25992 2.03802
2 2.5142 2.80621 2.28576
3 2.35298 3.13453 2.59843
2 2.1093 3.58369 2.98678
3 1.98286 2.46188 3.38068
2 1.61944 2.36048 3.06082
3 1.3543 2.54375 2.52264
2 1.2002 2.71747 1.98792
4 1.30577 2.89222 1.52667
4 1.57842 2.98013 1.14188
1 1.9573 3.0484 0.711416
1 2.12053 2.5729 0.29037
3 2.18784 2.0711 -0.0963302
2 1.99321 1.71236 -0.29699
3 1.47835 1.63263 -0.627673
2 1.19647 1.56619 -1.05251
24
Atoms. Timestep: 40000
3 2.13068 2.6485 -1.05217
2 1.82477 2.73023 -0.623808
3 1.17233 2.7074 -0.318841
2 0.993328 2.63854 0.084056
4 0.989129 2.30576 0.567956
4 1.23893 2.09665 1.04662
1 1.47295 1.91023 1.62909
1 1.98814 1.95599 1.73167
3 2.39218 2.25864 2.04779
2 2.51753 2.81458 2.27802
3 2.35129 3.13898 2.5952
2 2.10681 3.58204 2.99563
3 1.97942 2.46518 3.3793
2 1.61591 2.36832 3.06317
3 1.35511 2.54342 2.52169
2 1.19901 2.72167 1.98355
4 1.29844 2.89097 1.52519
4 1.56509 2.97188 1.13908
1 1.95454 3.04684 0.722687
1 2.12162 2.57259 0.293178
3 2.17114 2.07272 -0.0974014
2 1.9926 1.71278 -0.289656
3 1.47507 1.64404 -0.63717
2 1.1964 1.55879 -1.06524
24
Atoms. Timestep: 41000
3 2.13548 2.64928 -1.03694
2 1.82519 2.7249 -0.629246
3 1.17314 2.70259 -0.330693
2 0.991036 2.63313 0.0783602
4 0.980334 2.31065 0.559983
4 1.24328 2.10507 1.05286
1 1.47571 1.90945 1.62949
1 1.99484 1.95795 1.72441
3 2.38852 2.26559 2.05922
2 2.51907 2.81482 2.27192
3 2.34822 3.13824 2.59857
2 2.10397 3.5813 3.00317
3 1.97944 2.46526 3.3799
2 1.61371 2.37208 3.06612
3 1.36065 2.54797 2.51736
2 1.20109 2.72598 1.98061
4 1.2921 2.88605 1.52199
4 1.54688 2.9648 1.13374
1 1.95296 3.05055 0.728665
1 2.12335 2.57299 0.294211
3 2.15748 2.07526 -0.0989985
2 1.99565 1.71061 -0.282906
3 1.46695 1.65428 -0.641171
2 1.19355 1.55222 -1.07934
24
Atoms. Timestep: 42000
3 2.14032 2.64503 -1.02202
2 1.82328 2.71878 -0.633413
3 1.17106 2.69789 -0.345772
2 0.986478 2.63171 0.0708039
4 0.972563 2.31549 0.553844
4 1.24747 2.11192 1.06102
1 1.47344 1.90995 1.62363
1 2.00059 1.96678 1.72195
3 2.38687 2.27391 2.07046
2 2.51585 2.8153 2.2665
3 2.34651 3.13904 2.59953
2 2.1012 3.58017 3.00778
3 1.97989 2.45934 3.38534
2 1.61 2.37299 3.07198
3 1.36608 2.5467 2.5114
2 1.20656 2.72502 1.98347
4 1.28963 2.88096 1.51666
4 1.53398 2.95586 1.13121
1 1.95057 3.054 0.732083
1 2.1251 2.5742 0.297201
3 2.13962 2.07902 -0.0975101
2 1.99986 1.70994 -0.271418
3 1.45514 1.66039 -0.647938
2 1.1949 1.54706 -1.0844
24
Atoms. Timestep: 43000
3 2.14023 2.64025 -1.00761
2 1.82356 2.70554 -0.62797
3 1.16436 2.69322 -0.364034
2 0.982654 2.62993 0.06647
4 0.964921 2.3205 0.549872
4 1.24608 2.11981 1.07602
1 1.47233 1.91612 1.6157
1 2.00276 1.97882 1.72042
3 2.39283 2.27916 2.08233
2 2.51683 2.81619 2.25686
3 2.34468 3.14377 2.60187
2 2.09841 3.58152 3.01189
3 1.9804 2.45463 3.38488
2 1.60747 2.37247 3.08216
3 1.37661 2.54464 2.50288
2 1.2179 2.72636 1.9874
4 1.28351 2.88074 1.51221
4 1.52777 2.95001 1.13424
1 1.94894 3.05928 0.730226
1 2.12305 2.57325 0.300273
3 2.12208 2.0795 -0.0934946
2 1.99929 1.7113 -0.26104
3 1.43851 1.66106 -0.653022
2 1.19766 1.54674 -1.08617
24
Atoms. Timestep: 44000
3 2.14099 2.638 -0.992416
2 1.83375 2.69452 -0.624981
3 1.1593 2.69494 -0.383349
2 0.982821 2.62668 0.0625235
4 0.957521 2.32632 0.547112
4 1.24165 2.12556 1.08254
1 1.46557 1.91757 1.61239
1 2.00456 1.98953 1.72325
3 2.40368 2.28096 2.09292
2 2.51971 2.81725 2.25425
3 2.34807 3.15295 2.60666
2 2.09776 3.58613 3.01136
3 1.98535 2.44897 3.38118
2 1.6031 2.37183 3.09053
3 1.38546 2.54653 2.49125
2 1.22934 2.72985 1.99159
4 1.28597 2.87826 1.50444
4 1.52687 2.95245 1.14036
1 1.95174 3.05926 0.730686
1 2.12096 2.57253 0.306417
3 2.10679 2.07686 -0.0882729
2 2.00234 1.71268 -0.252501
3 1.42544 1.66219 -0.657786
2 1.20357 1.54467 -1.08485
24
Atoms. Timestep: 45000
3 2.13532 2.6395 -0.974694
2 1.84227 2.69094 -0.622814
3 1.14823 2.69734 -0.394185
2 0.98486 2.62514 0.0600717
4 0.95254 2.32948 0.546502
4 1.23132 2.1313 1.08312
1 1.46377 1.92012 1.61187
1 2.00524 1.99694 1.72553
3 2.41405 2.28254 2.10212
2 2.51742 2.81669 2.24868