# LAMMPS data file
24 atoms
24 ellipsoids
22 bonds

4 atom types
1 bond types

# System size
-800.000000 800.000000 xlo xhi
-800.000000 800.000000 ylo yhi
-800.000000 800.000000 zlo zhi

Masses

1 3.1575
2 3.1575
3 3.1575
4 3.1575

# Atom-ID, type, position, molecule-ID, ellipsoid flag, density
Atoms

1 3  2.005320284317701e+00  2.539099020256569e+00 -1.136203547567718e+00 1 1 1
2 2  1.697810209957860e+00  2.862310154348068e+00 -7.537413032463761e-01 1 1 1
3 3  1.310204059851865e+00  2.754140963521099e+00 -3.156737603790903e-01 1 1 1
4 2  1.080553873530975e+00  2.655200751350082e+00  1.894749199836878e-01 1 1 1
5 4  9.999530406198638e-01  2.281897158957501e+00  6.503991547311576e-01 1 1 1
6 4  1.188136886593097e+00  1.979155905142052e+00  1.103750880488378e+00 1 1 1
7 1  1.517939601292501e+00  1.860849293932177e+00  1.494957457037758e+00 1 1 1
8 1  1.992693344066906e+00  1.922751819675980e+00  1.789018213531010e+00 1 1 1
9 3  2.324969583128775e+00  2.255074814830626e+00  2.030219428376272e+00 1 1 1
10 2  2.550209463550871e+00  2.747877559595161e+00  2.271134810494186e+00 1 1 1
11 3  2.422191508890264e+00  3.176113684390275e+00  2.577771137057354e+00 1 1 1
12 2  2.151260565860530e+00  3.571297546372388e+00  2.860677389058464e+00 1 1 1
13 3  1.981024141390424e+00  2.474988793784285e+00  3.326106213579799e+00 2 1 1
14 2  1.519358386574560e+00  2.347647705787125e+00  2.982828931921257e+00 2 1 1
15 3  1.301751371427352e+00  2.562199833507652e+00  2.493649811095220e+00 2 1 1
16 2  1.154335710137047e+00  2.701276553675807e+00  1.965991522596112e+00 2 1 1
17 4  1.290549424747593e+00  2.968278938718009e+00  1.460284104249824e+00 2 1 1
18 4  1.618983329420052e+00  3.076631838459732e+00  9.884362526414650e-01 2 1 1
19 1  1.944850680351971e+00  2.917988796833596e+00  5.915204776439807e-01 2 1 1
20 1  2.206051051554691e+00  2.583308176522546e+00  2.753776316819285e-01 2 1 1
21 3  2.210970351554996e+00  2.105018250122735e+00  1.996840914427203e-02 2 1 1
22 2  1.973727462586967e+00  1.671976372017153e+00 -3.091471929412637e-01 2 1 1
23 3  1.622585327328225e+00  1.589308202949903e+00 -6.877468035603748e-01 2 1 1
24 2  1.189400387414886e+00  1.623804003287157e+00 -1.057312455975581e+00 2 1 1

# Atom-ID, translational, rotational velocity
Velocities

1  0.000000000000000e+00  0.000000000000000e+00  0.000000000000000e+00  0.000000000000000e+00  0.000000000000000e+00  0.000000000000000e+00
2  0.000000000000000e+00  0.000000000000000e+00  0.000000000000000e+00  0.000000000000000e+00  0.000000000000000e+00  0.000000000000000e+00
3  0.000000000000000e+00  0.000000000000000e+00  0.000000000000000e+00  0.000000000000000e+00  0.000000000000000e+00  0.000000000000000e+00
4  0.000000000000000e+00  0.000000000000000e+00  0.000000000000000e+00  0.000000000000000e+00  0.000000000000000e+00  0.000000000000000e+00
5  0.000000000000000e+00  0.000000000000000e+00  0.000000000000000e+00  0.000000000000000e+00  0.000000000000000e+00  0.000000000000000e+00
6  0.000000000000000e+00  0.000000000000000e+00  0.000000000000000e+00  0.000000000000000e+00  0.000000000000000e+00  0.000000000000000e+00
7  0.000000000000000e+00  0.000000000000000e+00  0.000000000000000e+00  0.000000000000000e+00  0.000000000000000e+00  0.000000000000000e+00
8  0.000000000000000e+00  0.000000000000000e+00  0.000000000000000e+00  0.000000000000000e+00  0.000000000000000e+00  0.000000000000000e+00
9  0.000000000000000e+00  0.000000000000000e+00  0.000000000000000e+00  0.000000000000000e+00  0.000000000000000e+00  0.000000000000000e+00
10  0.000000000000000e+00  0.000000000000000e+00  0.000000000000000e+00  0.000000000000000e+00  0.000000000000000e+00  0.000000000000000e+00
11  0.000000000000000e+00  0.000000000000000e+00  0.000000000000000e+00  0.000000000000000e+00  0.000000000000000e+00  0.000000000000000e+00
12  0.000000000000000e+00  0.000000000000000e+00  0.000000000000000e+00  0.000000000000000e+00  0.000000000000000e+00  0.000000000000000e+00
13  0.000000000000000e+00  0.000000000000000e+00  0.000000000000000e+00  0.000000000000000e+00  0.000000000000000e+00  0.000000000000000e+00
14  0.000000000000000e+00  0.000000000000000e+00  0.000000000000000e+00  0.000000000000000e+00  0.000000000000000e+00  0.000000000000000e+00
15  0.000000000000000e+00  0.000000000000000e+00  0.000000000000000e+00  0.000000000000000e+00  0.000000000000000e+00  0.000000000000000e+00
16  0.000000000000000e+00  0.000000000000000e+00  0.000000000000000e+00  0.000000000000000e+00  0.000000000000000e+00  0.000000000000000e+00
17  0.000000000000000e+00  0.000000000000000e+00  0.000000000000000e+00  0.000000000000000e+00  0.000000000000000e+00  0.000000000000000e+00
18  0.000000000000000e+00  0.000000000000000e+00  0.000000000000000e+00  0.000000000000000e+00  0.000000000000000e+00  0.000000000000000e+00
19  0.000000000000000e+00  0.000000000000000e+00  0.000000000000000e+00  0.000000000000000e+00  0.000000000000000e+00  0.000000000000000e+00
20  0.000000000000000e+00  0.000000000000000e+00  0.000000000000000e+00  0.000000000000000e+00  0.000000000000000e+00  0.000000000000000e+00
21  0.000000000000000e+00  0.000000000000000e+00  0.000000000000000e+00  0.000000000000000e+00  0.000000000000000e+00  0.000000000000000e+00
22  0.000000000000000e+00  0.000000000000000e+00  0.000000000000000e+00  0.000000000000000e+00  0.000000000000000e+00  0.000000000000000e+00
23  0.000000000000000e+00  0.000000000000000e+00  0.000000000000000e+00  0.000000000000000e+00  0.000000000000000e+00  0.000000000000000e+00
24  0.000000000000000e+00  0.000000000000000e+00  0.000000000000000e+00  0.000000000000000e+00  0.000000000000000e+00  0.000000000000000e+00

# Atom-ID, shape, quaternion
Ellipsoids

1  1.173984503142341e+00  1.173984503142341e+00  1.173984503142341e+00 -3.489659179308947e-01  5.152276948390665e-02  8.528516175609165e-02  9.318232844974381e-01
2  1.173984503142341e+00  1.173984503142341e+00  1.173984503142341e+00  7.414145573950499e-01  2.133699101796718e-02 -7.962675473679438e-02 -6.659645387159048e-01
3  1.173984503142341e+00  1.173984503142341e+00  1.173984503142341e+00  8.274675421694904e-01 -1.314875159302332e-01  3.569493341089138e-03 -5.458898776564438e-01
4  1.173984503142341e+00  1.173984503142341e+00  1.173984503142341e+00  9.866707846122645e-01 -3.042977959512910e-02  5.958644181520945e-02 -1.483382865554704e-01
5  1.173984503142341e+00  1.173984503142341e+00  1.173984503142341e+00  9.825226944131763e-01 -2.089945132180357e-02  8.675069579891788e-02  1.633605970726222e-01
6  1.173984503142341e+00  1.173984503142341e+00  1.173984503142341e+00  8.957934452550149e-01  2.021693356030085e-03  1.525722885304499e-01  4.174586362344250e-01
7  1.173984503142341e+00  1.173984503142341e+00  1.173984503142341e+00  8.209041442272779e-01 -1.220731831454916e-02  1.789967552917487e-01  5.421508359903854e-01
8  1.173984503142341e+00  1.173984503142341e+00  1.173984503142341e+00  5.993667313312349e-01  2.553675295634133e-02  2.087669980051881e-01  7.723494909467217e-01
9  1.173984503142341e+00  1.173984503142341e+00  1.173984503142341e+00  2.726459892189665e-01  1.052272541937778e-01  2.076629704672868e-01  9.335242258422392e-01
10  1.173984503142341e+00  1.173984503142341e+00  1.173984503142341e+00 -1.374311708059896e-01  8.486613807163806e-02  2.180302734887448e-01  9.624828371156152e-01
11  1.173984503142341e+00  1.173984503142341e+00  1.173984503142341e+00 -2.830898043499984e-01  1.020320848812969e-01  1.749303638561047e-01  9.374694577046371e-01
12  1.173984503142341e+00  1.173984503142341e+00  1.173984503142341e+00  7.264080156714100e-01 -1.775422043541576e-01 -1.625819638201656e-01 -6.437214191572077e-01
13  1.173984503142341e+00  1.173984503142341e+00  1.173984503142341e+00  5.249276681960241e-02  6.553696805710210e-01  7.182288477438700e-01 -2.277771136184967e-01
14  1.173984503142341e+00  1.173984503142341e+00  1.173984503142341e+00  1.047524882847992e-01  9.375503035228593e-01  2.767813700593585e-01 -1.828070506036395e-01
15  1.173984503142341e+00  1.173984503142341e+00  1.173984503142341e+00  1.786454567290680e-01  9.618297400821429e-01  1.469381022212342e-01 -1.462140417306158e-01
16  1.173984503142341e+00  1.173984503142341e+00  1.173984503142341e+00  1.239603839013208e-01  9.636034542237504e-01 -2.349592496100637e-01 -2.993922600484775e-02
17  1.173984503142341e+00  1.173984503142341e+00  1.173984503142341e+00  1.029361347938098e-01  8.449197832879320e-01 -5.214320093676967e-01  6.019444799274225e-02
18  1.173984503142341e+00  1.173984503142341e+00  1.173984503142341e+00  9.883268773126112e-02  6.588630730236430e-01 -7.345208531829190e-01  1.288823769221124e-01
19  1.173984503142341e+00  1.173984503142341e+00  1.173984503142341e+00  1.155415556877892e-01  5.561901245722585e-01 -8.135328259108390e-01  1.243665365082801e-01
20  1.173984503142341e+00  1.173984503142341e+00  1.173984503142341e+00 -7.604844966234187e-02 -2.488992942568464e-01  9.514068367780478e-01 -1.645928478227019e-01
21  1.173984503142341e+00  1.173984503142341e+00  1.173984503142341e+00 -2.809598111825296e-02  9.654299406655549e-02  9.763425269561646e-01 -1.914297160801281e-01
22  1.173984503142341e+00  1.173984503142341e+00  1.173984503142341e+00 -3.918143018891784e-02  5.146140066566851e-01  8.399145582637966e-01 -1.678713033774250e-01
23  1.173984503142341e+00  1.173984503142341e+00  1.173984503142341e+00 -2.328638235791601e-02  6.687814739809246e-01  7.365824961463453e-01 -9.815961912824576e-02
24  1.173984503142341e+00  1.173984503142341e+00  1.173984503142341e+00  7.346117105083885e-02  9.267593780193552e-01  3.683473349248944e-01  6.383764934981833e-03

# Bond topology
Bonds

1  1  1  2
2  1  2  3
3  1  3  4
4  1  4  5
5  1  5  6
6  1  6  7
7  1  7  8
8  1  8  9
9  1  9  10
10  1  10  11
11  1  11  12
12  1  13  14
13  1  14  15
14  1  15  16
15  1  16  17
16  1  17  18
17  1  18  19
18  1  19  20
19  1  20  21
20  1  21  22
21  1  22  23
22  1  23  24
