# LAMMPS data file
20 atoms
20 ellipsoids
19 bonds

4 atom types
1 bond types

# System size
-800.000000 800.000000 xlo xhi
-800.000000 800.000000 ylo yhi
-800.000000 800.000000 zlo zhi

Masses

1 3.1575
2 3.1575
3 3.1575
4 3.1575

# Atom-ID, type, position, molecule-ID, ellipsoid flag, density
Atoms

1 2 -7.223710084526883e-01 -1.784705916881897e+00 -4.407541382953744e-01 1 1 1
2 2 -1.715759416491831e-01 -1.670114141590105e+00 -2.472108400427179e-01 1 1 1
3 2  2.857819115497352e-01 -1.354293374940354e+00 -1.998310977133811e-01 1 1 1
4 4  5.777842999139076e-01 -8.610628473037487e-01 -3.768646787195741e-01 1 1 1
5 3  6.231751446763255e-01 -3.919588967307984e-01 -4.241882242448517e-01 1 1 1
6 4  1.472685293887454e-01  9.638412772951398e-02 -6.782695468419817e-01 1 1 1
7 4 -2.232292400406981e-01  5.768568521562181e-01 -5.663849103858497e-01 1 1 1
8 3 -3.983640180655498e-01  1.034162949049073e+00 -3.485283758960265e-01 1 1 1
9 3 -4.727428421474248e-01  1.572023949283869e+00 -4.194646630664475e-01 1 1 1
10 2 -7.365427292488770e-02  1.845458194790538e+00 -8.006574313219064e-02 1 1 1
11 4  2.570556468654612e-01  1.944799248649918e+00 -6.585270407763952e-01 1 1 1
12 4  5.401894028332159e-01  1.436964858730531e+00 -2.491742975659388e-01 1 1 1
13 2  7.606662172704483e-01  9.273568685667540e-01 -8.275454634966561e-02 1 1 1
14 1  7.902160842992024e-01  4.858054600951994e-01  2.136971973788128e-01 1 1 1
15 1  6.231901072239180e-01  4.230257493934413e-02  5.204593481184229e-01 1 1 1
16 4  2.223917977616028e-01 -3.436370039915473e-01  7.724504969867731e-01 1 1 1
17 1 -2.172262659466229e-01 -6.136310273431664e-01  5.974905191857528e-01 1 1 1
18 3 -6.533154703534386e-01 -7.609698493156362e-01  3.847975912600305e-01 1 1 1
19 3 -9.034501332817700e-01 -6.587572338162783e-01 -1.385854177313095e-01 1 1 1
20 3 -8.537985736088283e-01 -6.077094094857948e-01 -6.532159837990139e-01 1 1 1

# Atom-ID, translational, rotational velocity
Velocities

1  0.000000000000000e+00  0.000000000000000e+00  0.000000000000000e+00  0.000000000000000e+00  0.000000000000000e+00  0.000000000000000e+00
2  0.000000000000000e+00  0.000000000000000e+00  0.000000000000000e+00  0.000000000000000e+00  0.000000000000000e+00  0.000000000000000e+00
3  0.000000000000000e+00  0.000000000000000e+00  0.000000000000000e+00  0.000000000000000e+00  0.000000000000000e+00  0.000000000000000e+00
4  0.000000000000000e+00  0.000000000000000e+00  0.000000000000000e+00  0.000000000000000e+00  0.000000000000000e+00  0.000000000000000e+00
5  0.000000000000000e+00  0.000000000000000e+00  0.000000000000000e+00  0.000000000000000e+00  0.000000000000000e+00  0.000000000000000e+00
6  0.000000000000000e+00  0.000000000000000e+00  0.000000000000000e+00  0.000000000000000e+00  0.000000000000000e+00  0.000000000000000e+00
7  0.000000000000000e+00  0.000000000000000e+00  0.000000000000000e+00  0.000000000000000e+00  0.000000000000000e+00  0.000000000000000e+00
8  0.000000000000000e+00  0.000000000000000e+00  0.000000000000000e+00  0.000000000000000e+00  0.000000000000000e+00  0.000000000000000e+00
9  0.000000000000000e+00  0.000000000000000e+00  0.000000000000000e+00  0.000000000000000e+00  0.000000000000000e+00  0.000000000000000e+00
10  0.000000000000000e+00  0.000000000000000e+00  0.000000000000000e+00  0.000000000000000e+00  0.000000000000000e+00  0.000000000000000e+00
11  0.000000000000000e+00  0.000000000000000e+00  0.000000000000000e+00  0.000000000000000e+00  0.000000000000000e+00  0.000000000000000e+00
12  0.000000000000000e+00  0.000000000000000e+00  0.000000000000000e+00  0.000000000000000e+00  0.000000000000000e+00  0.000000000000000e+00
13  0.000000000000000e+00  0.000000000000000e+00  0.000000000000000e+00  0.000000000000000e+00  0.000000000000000e+00  0.000000000000000e+00
14  0.000000000000000e+00  0.000000000000000e+00  0.000000000000000e+00  0.000000000000000e+00  0.000000000000000e+00  0.000000000000000e+00
15  0.000000000000000e+00  0.000000000000000e+00  0.000000000000000e+00  0.000000000000000e+00  0.000000000000000e+00  0.000000000000000e+00
16  0.000000000000000e+00  0.000000000000000e+00  0.000000000000000e+00  0.000000000000000e+00  0.000000000000000e+00  0.000000000000000e+00
17  0.000000000000000e+00  0.000000000000000e+00  0.000000000000000e+00  0.000000000000000e+00  0.000000000000000e+00  0.000000000000000e+00
18  0.000000000000000e+00  0.000000000000000e+00  0.000000000000000e+00  0.000000000000000e+00  0.000000000000000e+00  0.000000000000000e+00
19  0.000000000000000e+00  0.000000000000000e+00  0.000000000000000e+00  0.000000000000000e+00  0.000000000000000e+00  0.000000000000000e+00
20  0.000000000000000e+00  0.000000000000000e+00  0.000000000000000e+00  0.000000000000000e+00  0.000000000000000e+00  0.000000000000000e+00

# Atom-ID, shape, quaternion
Ellipsoids

1  1.173984503142341e+00  1.173984503142341e+00  1.173984503142341e+00  6.718106328427303e-01  1.754646005017864e-01  2.486155382054322e-01  6.753317419853905e-01
2  1.173984503142341e+00  1.173984503142341e+00  1.173984503142341e+00  4.120057372073647e-01  2.812532257339434e-01  3.497122649780366e-01  7.930001432827103e-01
3  1.173984503142341e+00  1.173984503142341e+00  1.173984503142341e+00  1.245360152005650e-01  2.229797969666854e-01  3.777455193240546e-01  8.899882660424580e-01
4  1.173984503142341e+00  1.173984503142341e+00  1.173984503142341e+00 -1.306579267618075e-01  4.570528199821287e-01  5.405800012469141e-01  6.941213785589494e-01
5  1.173984503142341e+00  1.173984503142341e+00  1.173984503142341e+00 -3.258048758075165e-01  4.404272737305794e-01  4.523118748398036e-01  7.037676941528360e-01
6  1.173984503142341e+00  1.173984503142341e+00  1.173984503142341e+00  6.454501485315366e-01 -5.831852335725765e-01 -3.797222480877485e-01 -3.148016890213631e-01
7  1.173984503142341e+00  1.173984503142341e+00  1.173984503142341e+00  7.058636356759841e-01 -6.610527567507127e-01 -1.746861136216314e-01 -1.850690204500346e-01
8  1.173984503142341e+00  1.173984503142341e+00  1.173984503142341e+00  7.052284902746605e-01 -6.852370399697545e-01 -4.596386986915207e-02 -1.760406152712029e-01
9  1.173984503142341e+00  1.173984503142341e+00  1.173984503142341e+00  7.783997705782302e-01 -5.472289736375285e-01 -1.010738842076370e-01 -2.905483049452479e-01
10  1.173984503142341e+00  1.173984503142341e+00  1.173984503142341e+00  1.493513430480515e-01  8.387908234586043e-01 -4.704505772937818e-01  2.297833439031793e-01
11  1.173984503142341e+00  1.173984503142341e+00  1.173984503142341e+00  4.471124342077317e-01 -2.974703127699355e-01  7.924774231897804e-01  2.891045103969830e-01
12  1.173984503142341e+00  1.173984503142341e+00  1.173984503142341e+00 -9.249808979202266e-02 -2.881571049309505e-01  7.763987657066271e-01 -5.528241518528888e-01
13  1.173984503142341e+00  1.173984503142341e+00  1.173984503142341e+00  1.509984423903887e-01 -2.841159553885594e-02  6.755629043771024e-01 -7.211151183161998e-01
14  1.173984503142341e+00  1.173984503142341e+00  1.173984503142341e+00  1.335146793785138e-01  1.605954129004244e-01  6.628693363898659e-01 -7.190182102143545e-01
15  1.173984503142341e+00  1.173984503142341e+00  1.173984503142341e+00  2.268165475766202e-01  3.679613489170038e-01  5.863307954444622e-01 -6.851094056879280e-01
16  1.173984503142341e+00  1.173984503142341e+00  1.173984503142341e+00  3.956849139236391e-01  6.579488694073105e-01  3.744744576597854e-01 -5.199092369820849e-01
17  1.173984503142341e+00  1.173984503142341e+00  1.173984503142341e+00  3.265910230641867e-01  8.012056719279265e-01  2.297820819180604e-01 -4.456545408203641e-01
18  1.173984503142341e+00  1.173984503142341e+00  1.173984503142341e+00  3.945665502378694e-01  8.814422227549017e-01 -3.297089081749768e-02 -2.574679897326771e-01
19  1.173984503142341e+00  1.173984503142341e+00  1.173984503142341e+00  2.736185976262784e-01  8.955414568747330e-01 -3.425495660215184e-01 -7.614562935703378e-02
20  1.173984503142341e+00  1.173984503142341e+00  1.173984503142341e+00  7.108417358014165e-01 -3.242095688941313e-01 -6.635734028651274e-02 -6.206358718849649e-01

# Bond topology
Bonds

1  1  1  2
2  1  2  3
3  1  3  4
4  1  4  5
5  1  5  6
6  1  6  7
7  1  7  8
8  1  8  9
9  1  9  10
10  1  10  11
11  1  11  12
12  1  12  13
13  1  13  14
14  1  14  15
15  1  15  16
16  1  16  17
17  1  17  18
18  1  18  19
19  1  19  20
