# LAMMPS data file
70 atoms
70 ellipsoids
69 bonds

4 atom types
1 bond types

# System size
-800.000000 800.000000 xlo xhi
-800.000000 800.000000 ylo yhi
-800.000000 800.000000 zlo zhi

Masses

1 3.1575
2 3.1575
3 3.1575
4 3.1575

# Atom-ID, type, position, molecule-ID, ellipsoid flag, density
Atoms

1 2 -1.078058229631369e+00  3.366758628786100e+00  1.894691829067856e+01 1 1 1
2 1 -1.649811095220816e+00  4.096784349719312e+00  1.904780251446135e+01 1 1 1
3 1 -9.401588080855514e-01  4.676001622233131e+00  1.944786441546244e+01 1 1 1
4 1 -6.538826869303506e-01  4.975698520779525e+00  1.982003884821447e+01 1 1 1
5 1 -2.699097099191018e-01  5.358091955004374e+00  2.009938846079959e+01 1 1 1
6 3 -1.034979633921006e+00  5.547143134232366e+00  2.026338597547904e+01 1 1 1
7 3 -1.490536664046469e+00  5.476219157385382e+00  2.015555294670110e+01 1 1 1
8 3 -2.017114652347459e+00  5.746883836785527e+00  2.015018324366813e+01 1 1 1
9 3 -2.346718458098961e+00  6.125197790867422e+00  1.997038496483151e+01 1 1 1
10 3 -2.486871790683667e+00  6.580269914350175e+00  1.965878906050614e+01 1 1 1
11 2 -2.353116928856539e+00  6.885947405494247e+00  1.916498004226344e+01 1 1 1
12 2 -2.124324958910543e+00  6.773004226344213e+00  1.861408194411833e+01 1 1 1
13 2 -1.911857243484386e+00  6.418255459027940e+00  1.811594857947875e+01 1 1 1
14 3 -1.914646222322040e+00  6.098262502934960e+00  1.771164388456160e+01 1 1 1
15 4 -1.989645456679971e+00  5.255265320497769e+00  1.746181615402677e+01 1 1 1
16 1 -2.417986509850797e+00  5.724641934726462e+00  1.751015496595445e+01 1 1 1
17 4 -3.018865930969711e+00  5.637761211552008e+00  1.708163888236675e+01 1 1 1
18 2 -3.512796431087110e+00  5.864481098849495e+00  1.684704155905142e+01 1 1 1
19 4 -3.786505048133364e+00  6.282806996947639e+00  1.648557173045316e+01 1 1 1
20 4 -3.776919464663067e+00  6.685061047194175e+00  1.600430852312749e+01 1 1 1
21 3 -3.686898332942005e+00  6.754831201445533e+00  1.552038139183519e+01 1 1 1
22 3 -3.356697326377901e+00  6.781603152403605e+00  1.501305674939004e+01 1 1 1
23 2 -2.995034045550598e+00  6.605963841277293e+00  1.451100023479690e+01 1 1 1
24 1 -2.887446903882687e+00  6.224407137825779e+00  1.414240432026297e+01 1 1 1
25 4 -2.865173749706504e+00  5.652488847147217e+00  1.396426391171637e+01 1 1 1
26 3 -3.182840429984585e+00  5.229963147095154e+00  1.393032657186317e+01 1 1 1
27 2 -3.673462080300539e+00  4.788183845973234e+00  1.458908194411834e+01 1 1 1
28 1 -2.809115456039616e+00  4.388727614250036e+00  1.464964567013170e+01 1 1 1
29 2 -3.318683963371683e+00  4.510783047663771e+00  1.384861469828598e+01 1 1 1
30 3 -3.873373010606693e+00  4.392774380595569e+00  1.369030288800188e+01 1 1 1
31 2 -4.508705095092744e+00  4.453040619863817e+00  1.372584526884245e+01 1 1 1
32 4 -4.959350786569618e+00  4.806386475698520e+00  1.357597440713782e+01 1 1 1
33 3 -5.199056728972916e+00  5.143568096205477e+00  1.321829476198740e+01 1 1 1
34 1 -5.525865013127281e+00  5.353897628551303e+00  1.290062221178681e+01 1 1 1
35 1 -5.557141027556619e+00  5.161209417490235e+00  1.240610258490042e+01 1 1 1
36 1 -5.705751456808043e+00  4.804835748895386e+00  1.205197549574164e+01 1 1 1
37 3 -5.111273313800953e+00  4.591269638719030e+00  1.239377481956368e+01 1 1 1
38 4 -4.660383892932613e+00  4.234256867809346e+00  1.255439070204273e+01 1 1 1
39 1 -4.167490234583449e+00  4.299894341394693e+00  1.269258682149032e+01 1 1 1
40 3 -3.684795369396777e+00  4.584817828230754e+00  1.275919025694948e+01 1 1 1
41 2 -3.349371918290678e+00  5.132859826250293e+00  1.281650035219535e+01 1 1 1
42 3 -3.307583939891994e+00  5.548454934307911e+00  1.309256612595322e+01 1 1 1
43 4 -3.667674336698755e+00  6.153956327776474e+00  1.335574078422165e+01 1 1 1
44 1 -3.866395227219365e+00  6.439662532818203e+00  1.374551751371427e+01 1 1 1
45 4 -4.161827893871801e+00  6.546178680441418e+00  1.424828598262503e+01 1 1 1
46 3 -4.209893116367385e+00  6.327776473350551e+00  1.476991945445451e+01 1 1 1
47 2 -4.262426625968536e+00  5.927882131955856e+00  1.523638177976050e+01 1 1 1
48 2 -3.996225639821554e+00  5.517650857008687e+00  1.558903498473820e+01 1 1 1
49 3 -3.630072378696775e+00  5.374689914962687e+00  1.589169227314025e+01 1 1 1
50 1 -3.091960340668958e+00  5.279376294051100e+00  1.608128775427437e+01 1 1 1
51 3 -2.549220576375348e+00  5.423170370672845e+00  1.620286962646875e+01 1 1 1
52 3 -2.136340435088866e+00  5.803413742764682e+00  1.626885265984054e+01 1 1 1
53 1 -2.090274072018613e+00  6.284344383017781e+00  1.647068240517407e+01 1 1 1
54 1 -2.676924800956263e+00  6.391577194817392e+00  1.691479540651881e+01 1 1 1
55 4 -2.719670110354543e+00  6.742809344916647e+00  1.740766024888472e+01 1 1 1
56 2 -2.902042733035923e+00  6.815432026297252e+00  1.793376379431791e+01 1 1 1
57 3 -3.127719305409516e+00  6.594122931490348e+00  1.846419347264616e+01 1 1 1
58 3 -3.221872862582561e+00  6.319303367804241e+00  1.896078381330583e+01 1 1 1
59 3 -3.145609808385312e+00  5.901518013005706e+00  1.935890237553212e+01 1 1 1
60 2 -2.781104719417704e+00  5.360718478516082e+00  1.955081591922986e+01 1 1 1
61 4 -2.509585583470297e+00  4.638712138999765e+00  1.948525475463724e+01 1 1 1
62 1 -2.300459988473607e+00  4.645104484620802e+00  1.901525112595786e+01 1 1 1
63 4 -1.815995538858887e+00  5.394047898567739e+00  1.914762268138060e+01 1 1 1
64 2 -1.282918525475464e+00  5.522622681380606e+00  1.916983446818502e+01 1 1 1
65 2 -7.866107067386711e-01  5.873925804179384e+00  1.920270603428035e+01 1 1 1
66 1 -4.620002561420734e-01  6.098102414139042e+00  1.949383124506393e+01 1 1 1
67 4 -5.725757220004696e-01  6.357055646865462e+00  2.009890232448932e+01 1 1 1
68 2 -5.228105189011505e-01  6.338506691711669e+00  2.065263559521014e+01 1 1 1
69 4 -4.580300540032871e-01  6.048861235031698e+00  2.111830828833060e+01 1 1 1
70 3 -2.575604602019254e-01  5.699277999530405e+00  2.142739492838695e+01 1 1 1

# Atom-ID, translational, rotational velocity
Velocities

1  0.000000000000000e+00  0.000000000000000e+00  0.000000000000000e+00  0.000000000000000e+00  0.000000000000000e+00  0.000000000000000e+00
2  0.000000000000000e+00  0.000000000000000e+00  0.000000000000000e+00  0.000000000000000e+00  0.000000000000000e+00  0.000000000000000e+00
3  0.000000000000000e+00  0.000000000000000e+00  0.000000000000000e+00  0.000000000000000e+00  0.000000000000000e+00  0.000000000000000e+00
4  0.000000000000000e+00  0.000000000000000e+00  0.000000000000000e+00  0.000000000000000e+00  0.000000000000000e+00  0.000000000000000e+00
5  0.000000000000000e+00  0.000000000000000e+00  0.000000000000000e+00  0.000000000000000e+00  0.000000000000000e+00  0.000000000000000e+00
6  0.000000000000000e+00  0.000000000000000e+00  0.000000000000000e+00  0.000000000000000e+00  0.000000000000000e+00  0.000000000000000e+00
7  0.000000000000000e+00  0.000000000000000e+00  0.000000000000000e+00  0.000000000000000e+00  0.000000000000000e+00  0.000000000000000e+00
8  0.000000000000000e+00  0.000000000000000e+00  0.000000000000000e+00  0.000000000000000e+00  0.000000000000000e+00  0.000000000000000e+00
9  0.000000000000000e+00  0.000000000000000e+00  0.000000000000000e+00  0.000000000000000e+00  0.000000000000000e+00  0.000000000000000e+00
10  0.000000000000000e+00  0.000000000000000e+00  0.000000000000000e+00  0.000000000000000e+00  0.000000000000000e+00  0.000000000000000e+00
11  0.000000000000000e+00  0.000000000000000e+00  0.000000000000000e+00  0.000000000000000e+00  0.000000000000000e+00  0.000000000000000e+00
12  0.000000000000000e+00  0.000000000000000e+00  0.000000000000000e+00  0.000000000000000e+00  0.000000000000000e+00  0.000000000000000e+00
13  0.000000000000000e+00  0.000000000000000e+00  0.000000000000000e+00  0.000000000000000e+00  0.000000000000000e+00  0.000000000000000e+00
14  0.000000000000000e+00  0.000000000000000e+00  0.000000000000000e+00  0.000000000000000e+00  0.000000000000000e+00  0.000000000000000e+00
15  0.000000000000000e+00  0.000000000000000e+00  0.000000000000000e+00  0.000000000000000e+00  0.000000000000000e+00  0.000000000000000e+00
16  0.000000000000000e+00  0.000000000000000e+00  0.000000000000000e+00  0.000000000000000e+00  0.000000000000000e+00  0.000000000000000e+00
17  0.000000000000000e+00  0.000000000000000e+00  0.000000000000000e+00  0.000000000000000e+00  0.000000000000000e+00  0.000000000000000e+00
18  0.000000000000000e+00  0.000000000000000e+00  0.000000000000000e+00  0.000000000000000e+00  0.000000000000000e+00  0.000000000000000e+00
19  0.000000000000000e+00  0.000000000000000e+00  0.000000000000000e+00  0.000000000000000e+00  0.000000000000000e+00  0.000000000000000e+00
20  0.000000000000000e+00  0.000000000000000e+00  0.000000000000000e+00  0.000000000000000e+00  0.000000000000000e+00  0.000000000000000e+00
21  0.000000000000000e+00  0.000000000000000e+00  0.000000000000000e+00  0.000000000000000e+00  0.000000000000000e+00  0.000000000000000e+00
22  0.000000000000000e+00  0.000000000000000e+00  0.000000000000000e+00  0.000000000000000e+00  0.000000000000000e+00  0.000000000000000e+00
23  0.000000000000000e+00  0.000000000000000e+00  0.000000000000000e+00  0.000000000000000e+00  0.000000000000000e+00  0.000000000000000e+00
24  0.000000000000000e+00  0.000000000000000e+00  0.000000000000000e+00  0.000000000000000e+00  0.000000000000000e+00  0.000000000000000e+00
25  0.000000000000000e+00  0.000000000000000e+00  0.000000000000000e+00  0.000000000000000e+00  0.000000000000000e+00  0.000000000000000e+00
26  0.000000000000000e+00  0.000000000000000e+00  0.000000000000000e+00  0.000000000000000e+00  0.000000000000000e+00  0.000000000000000e+00
27  0.000000000000000e+00  0.000000000000000e+00  0.000000000000000e+00  0.000000000000000e+00  0.000000000000000e+00  0.000000000000000e+00
28  0.000000000000000e+00  0.000000000000000e+00  0.000000000000000e+00  0.000000000000000e+00  0.000000000000000e+00  0.000000000000000e+00
29  0.000000000000000e+00  0.000000000000000e+00  0.000000000000000e+00  0.000000000000000e+00  0.000000000000000e+00  0.000000000000000e+00
30  0.000000000000000e+00  0.000000000000000e+00  0.000000000000000e+00  0.000000000000000e+00  0.000000000000000e+00  0.000000000000000e+00
31  0.000000000000000e+00  0.000000000000000e+00  0.000000000000000e+00  0.000000000000000e+00  0.000000000000000e+00  0.000000000000000e+00
32  0.000000000000000e+00  0.000000000000000e+00  0.000000000000000e+00  0.000000000000000e+00  0.000000000000000e+00  0.000000000000000e+00
33  0.000000000000000e+00  0.000000000000000e+00  0.000000000000000e+00  0.000000000000000e+00  0.000000000000000e+00  0.000000000000000e+00
34  0.000000000000000e+00  0.000000000000000e+00  0.000000000000000e+00  0.000000000000000e+00  0.000000000000000e+00  0.000000000000000e+00
35  0.000000000000000e+00  0.000000000000000e+00  0.000000000000000e+00  0.000000000000000e+00  0.000000000000000e+00  0.000000000000000e+00
36  0.000000000000000e+00  0.000000000000000e+00  0.000000000000000e+00  0.000000000000000e+00  0.000000000000000e+00  0.000000000000000e+00
37  0.000000000000000e+00  0.000000000000000e+00  0.000000000000000e+00  0.000000000000000e+00  0.000000000000000e+00  0.000000000000000e+00
38  0.000000000000000e+00  0.000000000000000e+00  0.000000000000000e+00  0.000000000000000e+00  0.000000000000000e+00  0.000000000000000e+00
39  0.000000000000000e+00  0.000000000000000e+00  0.000000000000000e+00  0.000000000000000e+00  0.000000000000000e+00  0.000000000000000e+00
40  0.000000000000000e+00  0.000000000000000e+00  0.000000000000000e+00  0.000000000000000e+00  0.000000000000000e+00  0.000000000000000e+00
41  0.000000000000000e+00  0.000000000000000e+00  0.000000000000000e+00  0.000000000000000e+00  0.000000000000000e+00  0.000000000000000e+00
42  0.000000000000000e+00  0.000000000000000e+00  0.000000000000000e+00  0.000000000000000e+00  0.000000000000000e+00  0.000000000000000e+00
43  0.000000000000000e+00  0.000000000000000e+00  0.000000000000000e+00  0.000000000000000e+00  0.000000000000000e+00  0.000000000000000e+00
44  0.000000000000000e+00  0.000000000000000e+00  0.000000000000000e+00  0.000000000000000e+00  0.000000000000000e+00  0.000000000000000e+00
45  0.000000000000000e+00  0.000000000000000e+00  0.000000000000000e+00  0.000000000000000e+00  0.000000000000000e+00  0.000000000000000e+00
46  0.000000000000000e+00  0.000000000000000e+00  0.000000000000000e+00  0.000000000000000e+00  0.000000000000000e+00  0.000000000000000e+00
47  0.000000000000000e+00  0.000000000000000e+00  0.000000000000000e+00  0.000000000000000e+00  0.000000000000000e+00  0.000000000000000e+00
48  0.000000000000000e+00  0.000000000000000e+00  0.000000000000000e+00  0.000000000000000e+00  0.000000000000000e+00  0.000000000000000e+00
49  0.000000000000000e+00  0.000000000000000e+00  0.000000000000000e+00  0.000000000000000e+00  0.000000000000000e+00  0.000000000000000e+00
50  0.000000000000000e+00  0.000000000000000e+00  0.000000000000000e+00  0.000000000000000e+00  0.000000000000000e+00  0.000000000000000e+00
51  0.000000000000000e+00  0.000000000000000e+00  0.000000000000000e+00  0.000000000000000e+00  0.000000000000000e+00  0.000000000000000e+00
52  0.000000000000000e+00  0.000000000000000e+00  0.000000000000000e+00  0.000000000000000e+00  0.000000000000000e+00  0.000000000000000e+00
53  0.000000000000000e+00  0.000000000000000e+00  0.000000000000000e+00  0.000000000000000e+00  0.000000000000000e+00  0.000000000000000e+00
54  0.000000000000000e+00  0.000000000000000e+00  0.000000000000000e+00  0.000000000000000e+00  0.000000000000000e+00  0.000000000000000e+00
55  0.000000000000000e+00  0.000000000000000e+00  0.000000000000000e+00  0.000000000000000e+00  0.000000000000000e+00  0.000000000000000e+00
56  0.000000000000000e+00  0.000000000000000e+00  0.000000000000000e+00  0.000000000000000e+00  0.000000000000000e+00  0.000000000000000e+00
57  0.000000000000000e+00  0.000000000000000e+00  0.000000000000000e+00  0.000000000000000e+00  0.000000000000000e+00  0.000000000000000e+00
58  0.000000000000000e+00  0.000000000000000e+00  0.000000000000000e+00  0.000000000000000e+00  0.000000000000000e+00  0.000000000000000e+00
59  0.000000000000000e+00  0.000000000000000e+00  0.000000000000000e+00  0.000000000000000e+00  0.000000000000000e+00  0.000000000000000e+00
60  0.000000000000000e+00  0.000000000000000e+00  0.000000000000000e+00  0.000000000000000e+00  0.000000000000000e+00  0.000000000000000e+00
61  0.000000000000000e+00  0.000000000000000e+00  0.000000000000000e+00  0.000000000000000e+00  0.000000000000000e+00  0.000000000000000e+00
62  0.000000000000000e+00  0.000000000000000e+00  0.000000000000000e+00  0.000000000000000e+00  0.000000000000000e+00  0.000000000000000e+00
63  0.000000000000000e+00  0.000000000000000e+00  0.000000000000000e+00  0.000000000000000e+00  0.000000000000000e+00  0.000000000000000e+00
64  0.000000000000000e+00  0.000000000000000e+00  0.000000000000000e+00  0.000000000000000e+00  0.000000000000000e+00  0.000000000000000e+00
65  0.000000000000000e+00  0.000000000000000e+00  0.000000000000000e+00  0.000000000000000e+00  0.000000000000000e+00  0.000000000000000e+00
66  0.000000000000000e+00  0.000000000000000e+00  0.000000000000000e+00  0.000000000000000e+00  0.000000000000000e+00  0.000000000000000e+00
67  0.000000000000000e+00  0.000000000000000e+00  0.000000000000000e+00  0.000000000000000e+00  0.000000000000000e+00  0.000000000000000e+00
68  0.000000000000000e+00  0.000000000000000e+00  0.000000000000000e+00  0.000000000000000e+00  0.000000000000000e+00  0.000000000000000e+00
69  0.000000000000000e+00  0.000000000000000e+00  0.000000000000000e+00  0.000000000000000e+00  0.000000000000000e+00  0.000000000000000e+00
70  0.000000000000000e+00  0.000000000000000e+00  0.000000000000000e+00  0.000000000000000e+00  0.000000000000000e+00  0.000000000000000e+00

# Atom-ID, shape, quaternion
Ellipsoids

1  1.173984503142341e+00  1.173984503142341e+00  1.173984503142341e+00  8.101506402259339e-01 -1.847283324496120e-01  3.724162624544510e-01 -4.133249457646522e-01
2  1.173984503142341e+00  1.173984503142341e+00  1.173984503142341e+00  2.428105369165523e-01 -1.470547385580186e-01  3.313839176911429e-01  8.997792207678493e-01
3  1.173984503142341e+00  1.173984503142341e+00  1.173984503142341e+00  8.721828523875351e-01 -4.872433372580536e-01 -4.332658833607735e-02  3.716051928273272e-03
4  1.173984503142341e+00  1.173984503142341e+00  1.173984503142341e+00  6.556407641437807e-01 -3.359745290433394e-01  4.068425824377378e-01  5.401253718743994e-01
5  1.173984503142341e+00  1.173984503142341e+00  1.173984503142341e+00  8.920568715826137e-01  5.373243977068599e-02  3.619324933292506e-01  2.652399537230425e-01
6  1.173984503142341e+00  1.173984503142341e+00  1.173984503142341e+00 -2.530486271623711e-01  6.253318343992559e-01  6.783029902810176e-01 -2.912585493233304e-01
7  1.173984503142341e+00  1.173984503142341e+00  1.173984503142341e+00 -9.277317018220411e-02  8.914244491768993e-01  2.548655506589161e-01 -3.630415146940263e-01
8  1.173984503142341e+00  1.173984503142341e+00  1.173984503142341e+00 -2.882329115452383e-02  9.288797420489316e-01  1.850410566015470e-02 -3.687943068593247e-01
9  1.173984503142341e+00  1.173984503142341e+00  1.173984503142341e+00  8.041534169362753e-02  8.751934032270681e-01 -3.039475930980648e-01 -3.676761352304677e-01
10  1.173984503142341e+00  1.173984503142341e+00  1.173984503142341e+00  1.409212893772089e-01  6.935442042376018e-01 -6.405931123913982e-01 -2.979565258983229e-01
11  1.173984503142341e+00  1.173984503142341e+00  1.173984503142341e+00 -2.284760560044850e-01 -3.316839660786852e-01  9.062259619518843e-01  1.286038271721772e-01
12  1.173984503142341e+00  1.173984503142341e+00  1.173984503142341e+00 -2.686279950524603e-01 -1.406205180668447e-01  9.522423013040409e-01  3.604815917479941e-02
13  1.173984503142341e+00  1.173984503142341e+00  1.173984503142341e+00 -1.653827266842950e-01  1.152267555927651e-01  9.717679606472042e-01 -1.226310693487051e-01
14  1.173984503142341e+00  1.173984503142341e+00  1.173984503142341e+00 -2.204944566423088e-01  1.825135001195285e-01  9.465190962694546e-01 -1.489047254501570e-01
15  1.173984503142341e+00  1.173984503142341e+00  1.173984503142341e+00  6.144548041196949e-01  5.249585327400379e-01  4.350057858791286e-01 -3.970312315792494e-01
16  1.173984503142341e+00  1.173984503142341e+00  1.173984503142341e+00 -6.986026221786439e-03  8.696483365074268e-01  3.720294817290560e-01 -3.244333999018967e-01
17  1.173984503142341e+00  1.173984503142341e+00  1.173984503142341e+00  8.491011042164164e-02  9.135747159885099e-01  2.599722247576921e-01 -3.009750052898650e-01
18  1.173984503142341e+00  1.173984503142341e+00  1.173984503142341e+00  9.309306092887955e-01 -1.138766881980518e-01  2.439760840195592e-01 -2.467305635723240e-01
19  1.173984503142341e+00  1.173984503142341e+00  1.173984503142341e+00  8.276867940573633e-01 -1.847483884016791e-01  1.391160416340542e-01 -5.113211621731474e-01
20  1.173984503142341e+00  1.173984503142341e+00  1.173984503142341e+00  1.564318632139259e-01  7.563124154947697e-01 -6.282218652940660e-01 -9.411636577307285e-02
21  1.173984503142341e+00  1.173984503142341e+00  1.173984503142341e+00  1.830259388869081e-01  6.911857111924758e-01 -6.975072500964734e-01 -4.740732433678261e-02
22  1.173984503142341e+00  1.173984503142341e+00  1.173984503142341e+00 -3.821260967623287e-01  1.749189889924019e-01  1.060477008886384e-01  9.011863728437627e-01
23  1.173984503142341e+00  1.173984503142341e+00  1.173984503142341e+00 -3.545500379424466e-02  1.751165013793259e-01  1.185443652649707e-01  9.767417197573469e-01
24  1.173984503142341e+00  1.173984503142341e+00  1.173984503142341e+00 -1.429830416487244e-01 -3.412819745337094e-02  9.768573210418010e-01 -1.553733898275337e-01
25  1.173984503142341e+00  1.173984503142341e+00  1.173984503142341e+00 -1.558833717504149e-01  4.382887670400303e-01  8.268151893949285e-01 -3.161961000456527e-01
26  1.173984503142341e+00  1.173984503142341e+00  1.173984503142341e+00  5.832498901486032e-01  9.329948367837083e-02  3.455938361298989e-01  7.291636801267682e-01
27  1.173984503142341e+00  1.173984503142341e+00  1.173984503142341e+00  4.306771502480661e-01  4.090808701606873e-01  3.911070478088751e-01  7.029973762945391e-01
28  1.173984503142341e+00  1.173984503142341e+00  1.173984503142341e+00  6.102169853429036e-01 -6.335210879095414e-01 -4.749766129837598e-01 -2.614343304552126e-02
29  1.173984503142341e+00  1.173984503142341e+00  1.173984503142341e+00  2.413738095597077e-02  7.801334076505266e-01  4.995052630614278e-01 -3.759039043187731e-01
30  1.173984503142341e+00  1.173984503142341e+00  1.173984503142341e+00 -8.501350534291999e-02  8.222134340314929e-01  4.234707306702793e-01 -3.706889708003582e-01
31  1.173984503142341e+00  1.173984503142341e+00  1.173984503142341e+00 -1.172176197104503e-02  8.844629028413468e-01  3.082747026683588e-02 -4.654434883750121e-01
32  1.173984503142341e+00  1.173984503142341e+00  1.173984503142341e+00  7.799625391222874e-02  8.902363458022732e-01 -2.483592834663146e-01 -3.737826899474792e-01
33  1.173984503142341e+00  1.173984503142341e+00  1.173984503142341e+00  1.292708145391847e-01  8.488701296213466e-01 -3.829156996556309e-01 -3.407112068926597e-01
34  1.173984503142341e+00  1.173984503142341e+00  1.173984503142341e+00  2.541467511069683e-01  6.266709957031343e-01 -7.053365946438356e-01 -2.125868770701814e-01
35  1.173984503142341e+00  1.173984503142341e+00  1.173984503142341e+00 -3.697477955002094e-01 -2.697157433787216e-01  8.886790718066810e-01  2.809791503322715e-02
36  1.173984503142341e+00  1.173984503142341e+00  1.173984503142341e+00 -4.025303060381645e-01  8.024124624284938e-02  9.096441279438016e-01 -6.386122156345483e-02
37  1.173984503142341e+00  1.173984503142341e+00  1.173984503142341e+00  7.904916955202916e-01  2.589603490185925e-01  1.491949314865149e-01  5.346057326370127e-01
38  1.173984503142341e+00  1.173984503142341e+00  1.173984503142341e+00  4.562524907895443e-01  2.949354921495350e-01  1.599832574097687e-01  8.241675057094936e-01
39  1.173984503142341e+00  1.173984503142341e+00  1.173984503142341e+00  3.096751828478524e-01  3.464891096365858e-01  1.932543821191682e-01  8.641176550812589e-01
40  1.173984503142341e+00  1.173984503142341e+00  1.173984503142341e+00  6.341697562720865e-02  3.380263500430271e-01  1.154440711112687e-01  9.318739938018140e-01
41  1.173984503142341e+00  1.173984503142341e+00  1.173984503142341e+00 -3.894847273907133e-01  3.633431680640543e-01  5.824233066173008e-03  8.463152294858868e-01
42  1.173984503142341e+00  1.173984503142341e+00  1.173984503142341e+00 -4.766735664278769e-01  3.594937654032591e-01  7.817172273280708e-03  8.021754393664547e-01
43  1.173984503142341e+00  1.173984503142341e+00  1.173984503142341e+00  7.153829643617360e-01 -2.942009462854531e-01 -2.638226289675953e-02 -6.332274423224292e-01
44  1.173984503142341e+00  1.173984503142341e+00  1.173984503142341e+00  8.067888620900155e-01 -3.129011285667976e-01  3.793800714409887e-02 -4.997452584698092e-01
45  1.173984503142341e+00  1.173984503142341e+00  1.173984503142341e+00  9.661776012298258e-01 -1.818553491613673e-01  1.639166768789554e-01 -8.099875248506760e-02
46  1.173984503142341e+00  1.173984503142341e+00  1.173984503142341e+00  4.346647626622634e-02  9.755512948485288e-01  7.218112795714431e-02 -2.029783765015145e-01
47  1.173984503142341e+00  1.173984503142341e+00  1.173984503142341e+00  9.290128017093446e-01  1.135562231248707e-01  1.631911806920332e-01  3.121038881432088e-01
48  1.173984503142341e+00  1.173984503142341e+00  1.173984503142341e+00  7.993284566291544e-01  1.943384301189313e-01  1.877207948878070e-01  5.367191967579074e-01
49  1.173984503142341e+00  1.173984503142341e+00  1.173984503142341e+00 -1.709454184039596e-01  6.256708691805577e-01  7.254739809829156e-01 -2.302197435111524e-01
50  1.173984503142341e+00  1.173984503142341e+00  1.173984503142341e+00  5.282764060544920e-01  2.196340968950032e-01  3.097973380934386e-01  7.594145847937643e-01
51  1.173984503142341e+00  1.173984503142341e+00  1.173984503142341e+00  1.266051124841353e-01  2.629742639511359e-01  2.723130363862120e-01  9.168758324911608e-01
52  1.173984503142341e+00  1.173984503142341e+00  1.173984503142341e+00 -1.613585599838621e-01  2.700333189135523e-01  2.736348088539610e-01  9.089386190386690e-01
53  1.173984503142341e+00  1.173984503142341e+00  1.173984503142341e+00  6.377811411126751e-01 -3.284358313657831e-01 -8.249566442038402e-02 -6.917800127698981e-01
54  1.173984503142341e+00  1.173984503142341e+00  1.173984503142341e+00 -4.899462933594707e-01  3.910718657087437e-01  3.343924813792803e-02  7.783940147241423e-01
55  1.173984503142341e+00  1.173984503142341e+00  1.173984503142341e+00  8.125171740602849e-01 -1.749155523355401e-01  2.326553836576802e-01 -5.050661975061681e-01
56  1.173984503142341e+00  1.173984503142341e+00  1.173984503142341e+00  9.342676022877551e-01 -1.086267685503733e-01  2.333858942324779e-01 -2.467291973867283e-01
57  1.173984503142341e+00  1.173984503142341e+00  1.173984503142341e+00  1.562859659545969e-02  9.596820742490724e-01 -1.743985804574162e-01 -2.198890594547455e-01
58  1.173984503142341e+00  1.173984503142341e+00  1.173984503142341e+00 -1.315882076013685e-01  9.453511408290017e-01  1.471734300375074e-01 -2.594913209426455e-01
59  1.173984503142341e+00  1.173984503142341e+00  1.173984503142341e+00 -1.530228723070463e-01  8.998182051732010e-01  2.683518004120263e-01 -3.080560166680802e-01
60  1.173984503142341e+00  1.173984503142341e+00  1.173984503142341e+00  6.914827803926801e-01  4.265683520445663e-01  1.282175072169100e-01  5.687277699369647e-01
61  1.173984503142341e+00  1.173984503142341e+00  1.173984503142341e+00  3.672785773892492e-01  8.604690668370133e-01 -2.938253079666670e-01  1.958727137859232e-01
62  1.173984503142341e+00  1.173984503142341e+00  1.173984503142341e+00  3.072854264611956e-01  8.022759124901339e-01 -4.487290795161120e-01  2.461122510548943e-01
63  1.173984503142341e+00  1.173984503142341e+00  1.173984503142341e+00  3.703260673675763e-01  3.949014320632418e-01  1.453407227591396e-01  8.281228997499810e-01
64  1.173984503142341e+00  1.173984503142341e+00  1.173984503142341e+00  8.831776632552944e-03  4.424884588317083e-01  3.385910390326783e-02  8.960912479235136e-01
65  1.173984503142341e+00  1.173984503142341e+00  1.173984503142341e+00 -2.132086375175709e-01  4.320717875170632e-01 -3.011622641565613e-02  8.757562790104286e-01
66  1.173984503142341e+00  1.173984503142341e+00  1.173984503142341e+00  5.026878357117299e-01 -3.463382257735214e-01  1.578721084182531e-01 -7.761643966190935e-01
67  1.173984503142341e+00  1.173984503142341e+00  1.173984503142341e+00  8.354972411751276e-01 -2.524880395810672e-01  2.777815671392169e-01 -4.012873668768316e-01
68  1.173984503142341e+00  1.173984503142341e+00  1.173984503142341e+00  8.761862603020304e-01 -7.446320467528926e-02  3.659209236881146e-01 -3.047207672848470e-01
69  1.173984503142341e+00  1.173984503142341e+00  1.173984503142341e+00  9.093485728822769e-01  1.121828168570733e-01  4.000266491800951e-01  2.188306524972923e-02
70  1.173984503142341e+00  1.173984503142341e+00  1.173984503142341e+00  8.775668587740924e-01 -2.755662680108964e-02  3.933154867346752e-01 -2.728002356952483e-01

# Bond topology
Bonds

1  1  1  2
2  1  2  3
3  1  3  4
4  1  4  5
5  1  5  6
6  1  6  7
7  1  7  8
8  1  8  9
9  1  9  10
10  1  10  11
11  1  11  12
12  1  12  13
13  1  13  14
14  1  14  15
15  1  15  16
16  1  16  17
17  1  17  18
18  1  18  19
19  1  19  20
20  1  20  21
21  1  21  22
22  1  22  23
23  1  23  24
24  1  24  25
25  1  25  26
26  1  26  27
27  1  27  28
28  1  28  29
29  1  29  30
30  1  30  31
31  1  31  32
32  1  32  33
33  1  33  34
34  1  34  35
35  1  35  36
36  1  36  37
37  1  37  38
38  1  38  39
39  1  39  40
40  1  40  41
41  1  41  42
42  1  42  43
43  1  43  44
44  1  44  45
45  1  45  46
46  1  46  47
47  1  47  48
48  1  48  49
49  1  49  50
50  1  50  51
51  1  51  52
52  1  52  53
53  1  53  54
54  1  54  55
55  1  55  56
56  1  56  57
57  1  57  58
58  1  58  59
59  1  59  60
60  1  60  61
61  1  61  62
62  1  62  63
63  1  63  64
64  1  64  65
65  1  65  66
66  1  66  67
67  1  67  68
68  1  68  69
69  1  69  70
