# LAMMPS data file
27 atoms
27 ellipsoids
26 bonds

4 atom types
1 bond types

# System size
-800.000000 800.000000 xlo xhi
-800.000000 800.000000 ylo yhi
-800.000000 800.000000 zlo zhi

Masses

1 3.1575
2 3.1575
3 3.1575
4 3.1575

# Atom-ID, type, position, molecule-ID, ellipsoid flag, density
Atoms

1 2  8.149156624680940e-01 -1.860837391785138e+00  3.444334199304698e+00 1 1 1
2 2  3.552401366366481e-01 -1.527876451385680e+00  3.440925857198040e+00 1 1 1
3 3 -9.339737303702883e-02 -1.266729279173515e+00  3.592565225197851e+00 1 1 1
4 2 -5.801945027228866e-01 -1.122832862477183e+00  4.038044672003876e+00 1 1 1
5 4 -7.402637551850981e-01 -9.386084370352979e-01  4.564443922673553e+00 1 1 1
6 3 -7.100948855710398e-01 -6.671201469552367e-01  5.087700095299920e+00 1 1 1
7 1 -4.721587796253211e-01 -2.944175258098715e-01  5.630081040506023e+00 1 1 1
8 1 -3.487089727991353e-02  9.627740186556806e-02  5.956487865269270e+00 1 1 1
9 3  3.233498611935969e-01  4.593835890778005e-01  5.485604878250901e+00 1 1 1
10 4  7.311536354386791e-01  5.853525866791893e-01  4.945679737027470e+00 1 1 1
11 3  7.153018521331989e-01  8.185365247296383e-01  4.464366117426074e+00 1 1 1
12 3  5.774415424775216e-01  1.127736419761612e+00  3.984551745093436e+00 1 1 1
13 3  4.417945389003218e-01  1.614325373258014e+00  3.718039998342610e+00 1 1 1
14 2  3.291435972400002e-01  2.229540479743087e+00  3.972100826333608e+00 1 1 1
15 4  1.030343586131329e+00  2.089657196525005e+00  4.111078500430460e+00 1 1 1
16 4  5.260820223839712e-01  2.079060029740941e+00  4.730687954918996e+00 1 1 1
17 2  3.337903036454112e-01  1.756682244052443e+00  5.132429239030819e+00 1 1 1
18 2 -1.325428504343742e-01  1.404013512182929e+00  5.295904687606511e+00 1 1 1
19 1 -5.201925334585584e-01  1.005101496296613e+00  5.208111877165647e+00 1 1 1
20 2 -8.553385998530625e-01  5.813647001795060e-01  4.913829537450105e+00 1 1 1
21 1 -8.018278582965130e-01  1.817043408966395e-01  4.610365215906423e+00 1 1 1
22 2 -3.649160411727726e-01  4.364571419915322e-02  4.060588961516030e+00 1 1 1
23 4  9.821163027314707e-02 -1.866048368161540e-01  3.806300383501605e+00 1 1 1
24 3  5.533058022457633e-01 -5.571695924202037e-01  3.848480035357650e+00 1 1 1
25 2  1.001378485029804e+00 -9.714532413333434e-01  4.198963863999576e+00 1 1 1
26 3  1.166553872077124e+00 -1.424519702222283e+00  4.447971769125587e+00 1 1 1
27 3  1.166581495241910e+00 -1.957266964076074e+00  4.756695164565004e+00 1 1 1

# Atom-ID, translational, rotational velocity
Velocities

1  0.000000000000000e+00  0.000000000000000e+00  0.000000000000000e+00  0.000000000000000e+00  0.000000000000000e+00  0.000000000000000e+00
2  0.000000000000000e+00  0.000000000000000e+00  0.000000000000000e+00  0.000000000000000e+00  0.000000000000000e+00  0.000000000000000e+00
3  0.000000000000000e+00  0.000000000000000e+00  0.000000000000000e+00  0.000000000000000e+00  0.000000000000000e+00  0.000000000000000e+00
4  0.000000000000000e+00  0.000000000000000e+00  0.000000000000000e+00  0.000000000000000e+00  0.000000000000000e+00  0.000000000000000e+00
5  0.000000000000000e+00  0.000000000000000e+00  0.000000000000000e+00  0.000000000000000e+00  0.000000000000000e+00  0.000000000000000e+00
6  0.000000000000000e+00  0.000000000000000e+00  0.000000000000000e+00  0.000000000000000e+00  0.000000000000000e+00  0.000000000000000e+00
7  0.000000000000000e+00  0.000000000000000e+00  0.000000000000000e+00  0.000000000000000e+00  0.000000000000000e+00  0.000000000000000e+00
8  0.000000000000000e+00  0.000000000000000e+00  0.000000000000000e+00  0.000000000000000e+00  0.000000000000000e+00  0.000000000000000e+00
9  0.000000000000000e+00  0.000000000000000e+00  0.000000000000000e+00  0.000000000000000e+00  0.000000000000000e+00  0.000000000000000e+00
10  0.000000000000000e+00  0.000000000000000e+00  0.000000000000000e+00  0.000000000000000e+00  0.000000000000000e+00  0.000000000000000e+00
11  0.000000000000000e+00  0.000000000000000e+00  0.000000000000000e+00  0.000000000000000e+00  0.000000000000000e+00  0.000000000000000e+00
12  0.000000000000000e+00  0.000000000000000e+00  0.000000000000000e+00  0.000000000000000e+00  0.000000000000000e+00  0.000000000000000e+00
13  0.000000000000000e+00  0.000000000000000e+00  0.000000000000000e+00  0.000000000000000e+00  0.000000000000000e+00  0.000000000000000e+00
14  0.000000000000000e+00  0.000000000000000e+00  0.000000000000000e+00  0.000000000000000e+00  0.000000000000000e+00  0.000000000000000e+00
15  0.000000000000000e+00  0.000000000000000e+00  0.000000000000000e+00  0.000000000000000e+00  0.000000000000000e+00  0.000000000000000e+00
16  0.000000000000000e+00  0.000000000000000e+00  0.000000000000000e+00  0.000000000000000e+00  0.000000000000000e+00  0.000000000000000e+00
17  0.000000000000000e+00  0.000000000000000e+00  0.000000000000000e+00  0.000000000000000e+00  0.000000000000000e+00  0.000000000000000e+00
18  0.000000000000000e+00  0.000000000000000e+00  0.000000000000000e+00  0.000000000000000e+00  0.000000000000000e+00  0.000000000000000e+00
19  0.000000000000000e+00  0.000000000000000e+00  0.000000000000000e+00  0.000000000000000e+00  0.000000000000000e+00  0.000000000000000e+00
20  0.000000000000000e+00  0.000000000000000e+00  0.000000000000000e+00  0.000000000000000e+00  0.000000000000000e+00  0.000000000000000e+00
21  0.000000000000000e+00  0.000000000000000e+00  0.000000000000000e+00  0.000000000000000e+00  0.000000000000000e+00  0.000000000000000e+00
22  0.000000000000000e+00  0.000000000000000e+00  0.000000000000000e+00  0.000000000000000e+00  0.000000000000000e+00  0.000000000000000e+00
23  0.000000000000000e+00  0.000000000000000e+00  0.000000000000000e+00  0.000000000000000e+00  0.000000000000000e+00  0.000000000000000e+00
24  0.000000000000000e+00  0.000000000000000e+00  0.000000000000000e+00  0.000000000000000e+00  0.000000000000000e+00  0.000000000000000e+00
25  0.000000000000000e+00  0.000000000000000e+00  0.000000000000000e+00  0.000000000000000e+00  0.000000000000000e+00  0.000000000000000e+00
26  0.000000000000000e+00  0.000000000000000e+00  0.000000000000000e+00  0.000000000000000e+00  0.000000000000000e+00  0.000000000000000e+00
27  0.000000000000000e+00  0.000000000000000e+00  0.000000000000000e+00  0.000000000000000e+00  0.000000000000000e+00  0.000000000000000e+00

# Atom-ID, shape, quaternion
Ellipsoids

1  1.173984503142341e+00  1.173984503142341e+00  1.173984503142341e+00  6.398860121390557e-01 -5.327302349485553e-01 -2.665204760838173e-01 -4.855010031590963e-01
2  1.173984503142341e+00  1.173984503142341e+00  1.173984503142341e+00  7.441557852541997e-01 -5.567089801266035e-01 -3.267776062536882e-01 -1.718245464717190e-01
3  1.173984503142341e+00  1.173984503142341e+00  1.173984503142341e+00  7.660272605675357e-01 -5.520568458501555e-01 -2.908677561726696e-01 -1.543742965537042e-01
4  1.173984503142341e+00  1.173984503142341e+00  1.173984503142341e+00  8.282591654691706e-01 -4.457101429494824e-01 -1.321269359774701e-01  3.128445238093046e-01
5  1.173984503142341e+00  1.173984503142341e+00  1.173984503142341e+00  6.436799976658052e-01 -5.550667736504904e-01  1.126743738510986e-01  5.146663218741314e-01
6  1.173984503142341e+00  1.173984503142341e+00  1.173984503142341e+00  5.861722263424377e-01  6.232458722890682e-01  4.909098427183137e-01 -1.642383331067055e-01
7  1.173984503142341e+00  1.173984503142341e+00  1.173984503142341e+00  4.432780034971022e-01  3.405382943654296e-02  2.669321574193768e-01  8.550392807653733e-01
8  1.173984503142341e+00  1.173984503142341e+00  1.173984503142341e+00  3.160259239167874e-01 -9.695159496702541e-02  1.372684427541958e-01  9.337480271838485e-01
9  1.173984503142341e+00  1.173984503142341e+00  1.173984503142341e+00  1.920568000676650e-01 -2.198951444296584e-01  7.784875976038445e-01  5.556234078771549e-01
10  1.173984503142341e+00  1.173984503142341e+00  1.173984503142341e+00 -5.473716799529458e-02  2.712973892637817e-01  8.396517464101950e-01  4.673184286638189e-01
11  1.173984503142341e+00  1.173984503142341e+00  1.173984503142341e+00 -1.137661286665763e-01  3.330088791584482e-01  8.007520403674740e-01  4.847252048503162e-01
12  1.173984503142341e+00  1.173984503142341e+00  1.173984503142341e+00 -2.880889547683348e-01  4.784240283299076e-01  6.821411016133839e-01  4.720155937537989e-01
13  1.173984503142341e+00  1.173984503142341e+00  1.173984503142341e+00 -3.602633742320780e-01  5.232262226581097e-01  6.145391889072652e-01  4.677458780225052e-01
14  1.173984503142341e+00  1.173984503142341e+00  1.173984503142341e+00  3.046656368279902e-01  2.085335633272629e-01 -3.962360044142236e-01  8.406483399781867e-01
15  1.173984503142341e+00  1.173984503142341e+00  1.173984503142341e+00  7.275488766203279e-01 -4.613466584216961e-01  4.446202236563070e-01 -2.452442651876880e-01
16  1.173984503142341e+00  1.173984503142341e+00  1.173984503142341e+00 -3.135710982312873e-01 -2.938754402500784e-01 -4.661402584915401e-01  7.733198894282282e-01
17  1.173984503142341e+00  1.173984503142341e+00  1.173984503142341e+00  6.159176962211409e-01  5.551458337984563e-01  2.455561007018865e-01 -5.021560475648421e-01
18  1.173984503142341e+00  1.173984503142341e+00  1.173984503142341e+00  6.788388167239632e-01  6.483665445482844e-01  1.430963246363453e-01 -3.135635927445927e-01
19  1.173984503142341e+00  1.173984503142341e+00  1.173984503142341e+00  7.034600774492047e-01  6.636625831642158e-01  1.246841083379753e-01 -2.216974701500291e-01
20  1.173984503142341e+00  1.173984503142341e+00  1.173984503142341e+00  6.706387833031615e-01  6.909704018657737e-01 -2.080630310353178e-01  1.717943572749200e-01
21  1.173984503142341e+00  1.173984503142341e+00  1.173984503142341e+00  5.206389897734520e-01  6.707911219381455e-01 -3.778293469311209e-01  3.690789856578750e-01
22  1.173984503142341e+00  1.173984503142341e+00  1.173984503142341e+00  1.405450960409267e-01  5.484240853447412e-01 -6.753735076240949e-01  4.725978457337246e-01
23  1.173984503142341e+00  1.173984503142341e+00  1.173984503142341e+00 -1.708889626291868e-02 -2.689882428069977e-01  7.842820182749144e-01 -5.587978262902835e-01
24  1.173984503142341e+00  1.173984503142341e+00  1.173984503142341e+00 -3.469210278214132e-02 -2.702495102628618e-01  7.470806732730018e-01 -6.063267500524738e-01
25  1.173984503142341e+00  1.173984503142341e+00  1.173984503142341e+00  3.353411480593071e-01  3.730452802767857e-02  7.025196344419674e-01 -6.265946455487968e-01
26  1.173984503142341e+00  1.173984503142341e+00  1.173984503142341e+00  3.665582102245647e-01  1.155119736500559e-01  7.051333356410785e-01 -5.958850907919404e-01
27  1.173984503142341e+00  1.173984503142341e+00  1.173984503142341e+00  4.424875311199051e-01  2.953105983789291e-01  6.675873731555898e-01 -5.208872569872571e-01

# Bond topology
Bonds

1  1  1  2
2  1  2  3
3  1  3  4
4  1  4  5
5  1  5  6
6  1  6  7
7  1  7  8
8  1  8  9
9  1  9  10
10  1  10  11
11  1  11  12
12  1  12  13
13  1  13  14
14  1  14  15
15  1  15  16
16  1  16  17
17  1  17  18
18  1  18  19
19  1  19  20
20  1  20  21
21  1  21  22
22  1  22  23
23  1  23  24
24  1  24  25
25  1  25  26
26  1  26  27
