# LAMMPS data file
34 atoms
34 ellipsoids
33 bonds

4 atom types
1 bond types

# System size
-800.000000 800.000000 xlo xhi
-800.000000 800.000000 ylo yhi
-800.000000 800.000000 zlo zhi

Masses

1 3.1575
2 3.1575
3 3.1575
4 3.1575

# Atom-ID, type, position, molecule-ID, ellipsoid flag, density
Atoms

1 4 -2.968003241712048e+00 -3.391414007528649e-01  1.740432026297253e+00 1 1 1
2 1 -2.763232228364888e+00 -8.167267889033560e-01  1.813229738094730e+00 1 1 1
3 2 -2.622855584757894e+00 -1.406675806072908e+00  1.727544706087299e+00 1 1 1
4 2 -2.552624802126806e+00 -1.766028675518257e+00  1.231930106264532e+00 1 1 1
5 2 -2.394598913874982e+00 -1.867608631437032e+00  6.932037658393231e-01 1 1 1
6 3 -2.048123005952792e+00 -1.774916094636962e+00  2.813384804497052e-01 1 1 1
7 3 -1.636772647542229e+00 -1.529069928041656e+00 -6.014253553029571e-02 1 1 1
8 1 -1.496264594761895e+00 -1.233950208826940e+00 -1.095356001906835e+00 1 1 1
9 1 -1.638028559841192e+00 -8.359267718272179e-01 -1.531594413256775e+00 1 1 1
10 1 -1.390755405665009e+00 -3.821888763189538e-01 -1.863198787594186e+00 1 1 1
11 1 -1.203515549958377e+00 -4.631902495250711e-03 -2.412744491166656e+00 1 1 1
12 2 -6.646721553598075e-01  4.052973210431041e-01 -2.688042021071128e+00 1 1 1
13 4 -9.673632308053529e-03  7.435078656961729e-01 -2.593586131329732e+00 1 1 1
14 2  7.934999128979237e-02  5.785509244181202e-01 -2.122075453120147e+00 1 1 1
15 1 -2.312500444691100e-01  2.514603655716593e-01 -1.950123446249297e+00 1 1 1
16 2 -5.097592195653986e-01 -2.859712638889941e-01 -1.908811700459747e+00 1 1 1
17 2 -5.384271637291806e-01 -8.192745533178316e-01 -1.642851191783623e+00 1 1 1
18 3 -4.721178680441417e-01 -1.138537077192934e+00 -1.254554369294090e+00 1 1 1
19 2 -1.738898272349257e-01 -1.461606919691886e+00 -7.157480553514758e-01 1 1 1
20 3 -2.260438103393506e-01 -1.555242876676380e+00 -2.246074057704791e-01 1 1 1
21 1 -3.653333048731028e-01 -1.559239969547553e+00  3.459269852789458e-01 1 1 1
22 4 -7.876731627142523e-01 -1.603122798779056e+00  9.008609219691632e-01 1 1 1
23 2 -1.241151565186436e+00 -1.633720621984563e+00  1.255065175075173e+00 1 1 1
24 3 -1.636385923235225e+00 -1.330303992928469e+00  1.504319572393409e+00 1 1 1
25 3 -1.852005441763463e+00 -7.754305760811014e-01  1.433804538485974e+00 1 1 1
26 3 -2.152814800491692e+00 -3.797529107909892e-01  1.199905390660608e+00 1 1 1
27 4 -2.618427643421774e+00 -1.035767394537059e-01  7.540893793535259e-01 1 1 1
28 3 -2.099885363866139e+00 -2.308813170724971e-01 -7.250044887642776e-02 1 1 1
29 1 -1.677481554213181e+00 -5.894291589290415e-01  3.797661992073826e-02 1 1 1
30 2 -1.201906399351657e+00 -8.045202190427859e-01 -4.049413386452977e-01 1 1 1
31 3 -9.262185268566220e-01 -4.598013894451887e-01 -6.911315829454581e-01 1 1 1
32 2 -5.511175575063054e-01  2.838770270167918e-02 -8.366798203425007e-01 1 1 1
33 3 -5.719376268939132e-02  1.383816968910128e-01 -1.008659862160408e+00 1 1 1
34 3  4.076367691946466e-01  1.163822200046959e-01 -1.242768989199343e+00 1 1 1

# Atom-ID, translational, rotational velocity
Velocities

1  0.000000000000000e+00  0.000000000000000e+00  0.000000000000000e+00  0.000000000000000e+00  0.000000000000000e+00  0.000000000000000e+00
2  0.000000000000000e+00  0.000000000000000e+00  0.000000000000000e+00  0.000000000000000e+00  0.000000000000000e+00  0.000000000000000e+00
3  0.000000000000000e+00  0.000000000000000e+00  0.000000000000000e+00  0.000000000000000e+00  0.000000000000000e+00  0.000000000000000e+00
4  0.000000000000000e+00  0.000000000000000e+00  0.000000000000000e+00  0.000000000000000e+00  0.000000000000000e+00  0.000000000000000e+00
5  0.000000000000000e+00  0.000000000000000e+00  0.000000000000000e+00  0.000000000000000e+00  0.000000000000000e+00  0.000000000000000e+00
6  0.000000000000000e+00  0.000000000000000e+00  0.000000000000000e+00  0.000000000000000e+00  0.000000000000000e+00  0.000000000000000e+00
7  0.000000000000000e+00  0.000000000000000e+00  0.000000000000000e+00  0.000000000000000e+00  0.000000000000000e+00  0.000000000000000e+00
8  0.000000000000000e+00  0.000000000000000e+00  0.000000000000000e+00  0.000000000000000e+00  0.000000000000000e+00  0.000000000000000e+00
9  0.000000000000000e+00  0.000000000000000e+00  0.000000000000000e+00  0.000000000000000e+00  0.000000000000000e+00  0.000000000000000e+00
10  0.000000000000000e+00  0.000000000000000e+00  0.000000000000000e+00  0.000000000000000e+00  0.000000000000000e+00  0.000000000000000e+00
11  0.000000000000000e+00  0.000000000000000e+00  0.000000000000000e+00  0.000000000000000e+00  0.000000000000000e+00  0.000000000000000e+00
12  0.000000000000000e+00  0.000000000000000e+00  0.000000000000000e+00  0.000000000000000e+00  0.000000000000000e+00  0.000000000000000e+00
13  0.000000000000000e+00  0.000000000000000e+00  0.000000000000000e+00  0.000000000000000e+00  0.000000000000000e+00  0.000000000000000e+00
14  0.000000000000000e+00  0.000000000000000e+00  0.000000000000000e+00  0.000000000000000e+00  0.000000000000000e+00  0.000000000000000e+00
15  0.000000000000000e+00  0.000000000000000e+00  0.000000000000000e+00  0.000000000000000e+00  0.000000000000000e+00  0.000000000000000e+00
16  0.000000000000000e+00  0.000000000000000e+00  0.000000000000000e+00  0.000000000000000e+00  0.000000000000000e+00  0.000000000000000e+00
17  0.000000000000000e+00  0.000000000000000e+00  0.000000000000000e+00  0.000000000000000e+00  0.000000000000000e+00  0.000000000000000e+00
18  0.000000000000000e+00  0.000000000000000e+00  0.000000000000000e+00  0.000000000000000e+00  0.000000000000000e+00  0.000000000000000e+00
19  0.000000000000000e+00  0.000000000000000e+00  0.000000000000000e+00  0.000000000000000e+00  0.000000000000000e+00  0.000000000000000e+00
20  0.000000000000000e+00  0.000000000000000e+00  0.000000000000000e+00  0.000000000000000e+00  0.000000000000000e+00  0.000000000000000e+00
21  0.000000000000000e+00  0.000000000000000e+00  0.000000000000000e+00  0.000000000000000e+00  0.000000000000000e+00  0.000000000000000e+00
22  0.000000000000000e+00  0.000000000000000e+00  0.000000000000000e+00  0.000000000000000e+00  0.000000000000000e+00  0.000000000000000e+00
23  0.000000000000000e+00  0.000000000000000e+00  0.000000000000000e+00  0.000000000000000e+00  0.000000000000000e+00  0.000000000000000e+00
24  0.000000000000000e+00  0.000000000000000e+00  0.000000000000000e+00  0.000000000000000e+00  0.000000000000000e+00  0.000000000000000e+00
25  0.000000000000000e+00  0.000000000000000e+00  0.000000000000000e+00  0.000000000000000e+00  0.000000000000000e+00  0.000000000000000e+00
26  0.000000000000000e+00  0.000000000000000e+00  0.000000000000000e+00  0.000000000000000e+00  0.000000000000000e+00  0.000000000000000e+00
27  0.000000000000000e+00  0.000000000000000e+00  0.000000000000000e+00  0.000000000000000e+00  0.000000000000000e+00  0.000000000000000e+00
28  0.000000000000000e+00  0.000000000000000e+00  0.000000000000000e+00  0.000000000000000e+00  0.000000000000000e+00  0.000000000000000e+00
29  0.000000000000000e+00  0.000000000000000e+00  0.000000000000000e+00  0.000000000000000e+00  0.000000000000000e+00  0.000000000000000e+00
30  0.000000000000000e+00  0.000000000000000e+00  0.000000000000000e+00  0.000000000000000e+00  0.000000000000000e+00  0.000000000000000e+00
31  0.000000000000000e+00  0.000000000000000e+00  0.000000000000000e+00  0.000000000000000e+00  0.000000000000000e+00  0.000000000000000e+00
32  0.000000000000000e+00  0.000000000000000e+00  0.000000000000000e+00  0.000000000000000e+00  0.000000000000000e+00  0.000000000000000e+00
33  0.000000000000000e+00  0.000000000000000e+00  0.000000000000000e+00  0.000000000000000e+00  0.000000000000000e+00  0.000000000000000e+00
34  0.000000000000000e+00  0.000000000000000e+00  0.000000000000000e+00  0.000000000000000e+00  0.000000000000000e+00  0.000000000000000e+00

# Atom-ID, shape, quaternion
Ellipsoids

1  1.173984503142341e+00  1.173984503142341e+00  1.173984503142341e+00  5.913269341199289e-01  1.095896971260433e-01  7.458778590267002e-01 -2.863368203390784e-01
2  1.173984503142341e+00  1.173984503142341e+00  1.173984503142341e+00  5.873521720026160e-01  3.720144559405991e-01  7.170954634504904e-01 -4.895678618695883e-02
3  1.173984503142341e+00  1.173984503142341e+00  1.173984503142341e+00  5.006527608235241e-01  6.562089161227500e-01  5.461414560635389e-01  1.430600623849522e-01
4  1.173984503142341e+00  1.173984503142341e+00  1.173984503142341e+00  3.645667553316859e-01  8.333865279812038e-01  3.401136611286339e-01  2.384966947360853e-01
5  1.173984503142341e+00  1.173984503142341e+00  1.173984503142341e+00  1.629391769833619e-01  9.401638880403450e-01  1.124853337621572e-01  2.772899888514944e-01
6  1.173984503142341e+00  1.173984503142341e+00  1.173984503142341e+00  3.673904907432834e-02  9.269719865165116e-01  1.319986583917948e-01  3.492127326852685e-01
7  1.173984503142341e+00  1.173984503142341e+00  1.173984503142341e+00 -3.150701222275814e-01  8.882185385353238e-01  1.430510694128438e-01  3.022168715037463e-01
8  1.173984503142341e+00  1.173984503142341e+00  1.173984503142341e+00  6.266514841056494e-01  7.455463019695747e-01  9.745188114226729e-02  2.048701050654100e-01
9  1.173984503142341e+00  1.173984503142341e+00  1.173984503142341e+00 -1.424262038640942e-01  8.890152729461480e-01  2.965448338145296e-01  3.184772871952761e-01
10  1.173984503142341e+00  1.173984503142341e+00  1.173984503142341e+00  1.031571516977835e-01  8.995836203634566e-01 -1.324171944704100e-01  4.032041649536406e-01
11  1.173984503142341e+00  1.173984503142341e+00  1.173984503142341e+00  1.020275066637299e-01  8.550701556707055e-01 -5.007906555603833e-01 -8.748791955841412e-02
12  1.173984503142341e+00  1.173984503142341e+00  1.173984503142341e+00 -2.276123255424026e-01  6.539874384074955e-01 -7.144079776598191e-01 -1.005698817856958e-01
13  1.173984503142341e+00  1.173984503142341e+00  1.173984503142341e+00  5.657838726572316e-01 -4.931175818291398e-01  6.608458450618462e-01 -2.535546580440625e-03
14  1.173984503142341e+00  1.173984503142341e+00  1.173984503142341e+00  8.698841692631483e-01  2.913184334329698e-01  4.464087795779467e-02 -3.955278680733887e-01
15  1.173984503142341e+00  1.173984503142341e+00  1.173984503142341e+00  9.428852256637695e-01  3.235783251565272e-01 -2.747234468367951e-02 -7.422795289822005e-02
16  1.173984503142341e+00  1.173984503142341e+00  1.173984503142341e+00  8.893564819039659e-01  2.505541711014964e-01 -2.199885210643687e-01  3.128461379639433e-01
17  1.173984503142341e+00  1.173984503142341e+00  1.173984503142341e+00  8.010331896867491e-01  9.934381746608993e-02 -2.711733513901946e-01  5.243487851109667e-01
18  1.173984503142341e+00  1.173984503142341e+00  1.173984503142341e+00  7.277807970131626e-01  1.420191907324606e-02 -1.861212880451019e-01  6.599183912651284e-01
19  1.173984503142341e+00  1.173984503142341e+00  1.173984503142341e+00  4.038124817993816e-01 -1.274814211243930e-01 -2.642124082447513e-01  8.665308823929116e-01
20  1.173984503142341e+00  1.173984503142341e+00  1.173984503142341e+00  3.635646595369453e-01 -2.222288075817797e-01 -2.077534888383179e-01  8.804962142406250e-01
21  1.173984503142341e+00  1.173984503142341e+00  1.173984503142341e+00  7.843733931564796e-02 -4.080368969230802e-01 -3.163726995960421e-01  8.527964525610893e-01
22  1.173984503142341e+00  1.173984503142341e+00  1.173984503142341e+00  2.189092171025267e-02 -4.689846871444691e-01 -4.466053977832408e-01  7.616546260881987e-01
23  1.173984503142341e+00  1.173984503142341e+00  1.173984503142341e+00  1.310100584174126e-01  5.849418003282078e-01  1.047814800772121e-01 -7.935365752472220e-01
24  1.173984503142341e+00  1.173984503142341e+00  1.173984503142341e+00  8.249771919482138e-02  5.565464955263849e-01 -2.550516135800470e-01 -7.863833664664878e-01
25  1.173984503142341e+00  1.173984503142341e+00  1.173984503142341e+00 -3.155924816253628e-01 -4.610539511829486e-01  4.730950488545341e-01  6.811840532407244e-01
26  1.173984503142341e+00  1.173984503142341e+00  1.173984503142341e+00  5.243201913222161e-01  2.713143373450905e-01 -5.760981315612970e-01 -5.653209797401931e-01
27  1.173984503142341e+00  1.173984503142341e+00  1.173984503142341e+00  6.706806687030187e-01 -7.540770246071717e-02 -6.407740150204656e-01 -3.659368534490888e-01
28  1.173984503142341e+00  1.173984503142341e+00  1.173984503142341e+00  7.430723528519805e-01  4.614727381978382e-01  4.829873447140869e-01  4.012000963668009e-02
29  1.173984503142341e+00  1.173984503142341e+00  1.173984503142341e+00  7.866303994619068e-01  1.354180682672336e-01  1.511053957960421e-01  5.831309636698202e-01
30  1.173984503142341e+00  1.173984503142341e+00  1.173984503142341e+00 -2.285768348509934e-01  9.150542217077153e-01 -3.300520525714092e-01  3.865287179226307e-02
31  1.173984503142341e+00  1.173984503142341e+00  1.173984503142341e+00 -2.678355768559665e-01  8.753472017654832e-01 -3.610342699589080e-01  1.780045955777786e-01
32  1.173984503142341e+00  1.173984503142341e+00  1.173984503142341e+00 -2.404178073511148e-01  6.420162293712693e-01 -7.248291005911460e-01  6.809709295271214e-02
33  1.173984503142341e+00  1.173984503142341e+00  1.173984503142341e+00 -2.382672211342104e-01  5.082967746489766e-01 -8.245696714960175e-01  7.034185854367420e-02
34  1.173984503142341e+00  1.173984503142341e+00  1.173984503142341e+00  1.768467146480265e-01 -2.265205013662426e-01  9.568252426225701e-01  4.357931916913969e-02

# Bond topology
Bonds

1  1  1  2
2  1  2  3
3  1  3  4
4  1  4  5
5  1  5  6
6  1  6  7
7  1  7  8
8  1  8  9
9  1  9  10
10  1  10  11
11  1  11  12
12  1  12  13
13  1  13  14
14  1  14  15
15  1  15  16
16  1  16  17
17  1  17  18
18  1  18  19
19  1  19  20
20  1  20  21
21  1  21  22
22  1  22  23
23  1  23  24
24  1  24  25
25  1  25  26
26  1  26  27
27  1  27  28
28  1  28  29
29  1  29  30
30  1  30  31
31  1  31  32
32  1  32  33
33  1  33  34
