# LAMMPS data file
36 atoms
36 ellipsoids
35 bonds

4 atom types
1 bond types

# System size
-800.000000 800.000000 xlo xhi
-800.000000 800.000000 ylo yhi
-800.000000 800.000000 zlo zhi

Masses

1 3.1575
2 3.1575
3 3.1575
4 3.1575

# Atom-ID, type, position, molecule-ID, ellipsoid flag, density
Atoms

1 3  3.229097739546202e-01 -2.166182842750112e+00 -4.249396998868706e-01 1 1 1
2 2 -1.464036941379040e-01 -1.685227361665493e+00 -1.619002895828442e-01 1 1 1
3 1 -2.246932965484855e-01 -1.135334732331533e+00  5.521762737731862e-02 1 1 1
4 2 -1.089966345777569e-01 -5.412107693511780e-01  4.174414964389137e-01 1 1 1
5 3 -6.681039083011369e-03  7.918347599023814e-02  4.730446042960718e-01 1 1 1
6 4  2.765834115989670e-01  6.974385125616342e-01  5.033091688189717e-01 1 1 1
7 2  5.262463802144478e-01  1.216150113485169e+00  2.983720748219457e-01 1 1 1
8 4  1.618620127964311e+00  1.229224142991312e+00  7.429927799953042e-01 1 1 1
9 4  1.756757748297723e+00  1.224575898098145e+00  1.584325105658605e+00 1 1 1
10 2  2.297444627064256e+00  1.416768411990295e+00  1.353537606636926e+00 1 1 1
11 3  2.514436451863078e+00  1.999946637068027e+00  1.293723807694223e+00 1 1 1
12 4  2.655835436722235e+00  2.515305822963137e+00  9.301919464663067e-01 1 1 1
13 3  2.470991910179513e+00  3.128380541740484e+00  8.353397795755158e-01 1 1 1
14 4  2.129794992956093e+00  3.634102048602958e+00  1.111290062221178e+00 1 1 1
15 4  2.289251438131016e+00  3.363201455740783e+00  1.847114199342569e+00 1 1 1
16 2  1.673162714252172e+00  3.382221961336776e+00  1.701541832981138e+00 1 1 1
17 1  1.507638236675275e+00  2.844960671519136e+00  1.525644223996243e+00 1 1 1
18 2  1.266310558033967e+00  2.409196211943335e+00  1.113219065508335e+00 1 1 1
19 3  1.278828434616178e+00  1.887713718542552e+00  7.117796893565855e-01 1 1 1
20 3  5.863767992201896e-01  1.809220403139163e+00 -1.844934434744250e-01 1 1 1
21 2  5.319362917742818e-01  2.256543006965641e+00 -7.018118494169208e-01 1 1 1
22 2  2.002621898724270e-01  2.720180793613524e+00 -1.011951162244658e+00 1 1 1
23 3 -1.499000334407707e-01  3.147359957878859e+00 -9.715646723160224e-01 1 1 1
24 4 -3.513845679737028e-01  3.592018372857478e+00 -4.642558405729045e-01 1 1 1
25 4  3.686568149800422e-01  3.394102929091336e+00 -4.192959027940831e-02 1 1 1
26 2 -1.654692024731940e-01  3.252371448696878e+00  2.712530327933004e-01 1 1 1
27 3 -2.162194852967335e-01  2.714380242908067e+00  2.543312913118032e-01 1 1 1
28 3 -4.779895693255637e-01  2.166029869011789e+00  1.185404170846763e-01 1 1 1
29 2 -7.114346090631604e-01  1.558777490803788e+00 -1.566525788526258e-01 1 1 1
30 3 -6.228948323336676e-01  9.643144286252998e-01 -3.526542722363337e-01 1 1 1
31 1 -4.161885125616342e-01  4.710612819910777e-01 -6.273186193942240e-01 1 1 1
32 2  1.468263285591297e-02 -2.176958597479847e-02 -8.467950223057055e-01 1 1 1
33 3  4.827068525119712e-01 -4.771677801731805e-01 -7.781631767309156e-01 1 1 1
34 4  9.344879960084527e-01 -8.345012033341159e-01 -5.926934139469360e-01 1 1 1
35 3  1.105075170583506e+00 -1.261008772866016e+00 -2.125125402890137e-01 1 1 1
36 2  1.253858930543598e+00 -1.714665240492899e+00  2.834129033941196e-01 1 1 1

# Atom-ID, translational, rotational velocity
Velocities

1  0.000000000000000e+00  0.000000000000000e+00  0.000000000000000e+00  0.000000000000000e+00  0.000000000000000e+00  0.000000000000000e+00
2  0.000000000000000e+00  0.000000000000000e+00  0.000000000000000e+00  0.000000000000000e+00  0.000000000000000e+00  0.000000000000000e+00
3  0.000000000000000e+00  0.000000000000000e+00  0.000000000000000e+00  0.000000000000000e+00  0.000000000000000e+00  0.000000000000000e+00
4  0.000000000000000e+00  0.000000000000000e+00  0.000000000000000e+00  0.000000000000000e+00  0.000000000000000e+00  0.000000000000000e+00
5  0.000000000000000e+00  0.000000000000000e+00  0.000000000000000e+00  0.000000000000000e+00  0.000000000000000e+00  0.000000000000000e+00
6  0.000000000000000e+00  0.000000000000000e+00  0.000000000000000e+00  0.000000000000000e+00  0.000000000000000e+00  0.000000000000000e+00
7  0.000000000000000e+00  0.000000000000000e+00  0.000000000000000e+00  0.000000000000000e+00  0.000000000000000e+00  0.000000000000000e+00
8  0.000000000000000e+00  0.000000000000000e+00  0.000000000000000e+00  0.000000000000000e+00  0.000000000000000e+00  0.000000000000000e+00
9  0.000000000000000e+00  0.000000000000000e+00  0.000000000000000e+00  0.000000000000000e+00  0.000000000000000e+00  0.000000000000000e+00
10  0.000000000000000e+00  0.000000000000000e+00  0.000000000000000e+00  0.000000000000000e+00  0.000000000000000e+00  0.000000000000000e+00
11  0.000000000000000e+00  0.000000000000000e+00  0.000000000000000e+00  0.000000000000000e+00  0.000000000000000e+00  0.000000000000000e+00
12  0.000000000000000e+00  0.000000000000000e+00  0.000000000000000e+00  0.000000000000000e+00  0.000000000000000e+00  0.000000000000000e+00
13  0.000000000000000e+00  0.000000000000000e+00  0.000000000000000e+00  0.000000000000000e+00  0.000000000000000e+00  0.000000000000000e+00
14  0.000000000000000e+00  0.000000000000000e+00  0.000000000000000e+00  0.000000000000000e+00  0.000000000000000e+00  0.000000000000000e+00
15  0.000000000000000e+00  0.000000000000000e+00  0.000000000000000e+00  0.000000000000000e+00  0.000000000000000e+00  0.000000000000000e+00
16  0.000000000000000e+00  0.000000000000000e+00  0.000000000000000e+00  0.000000000000000e+00  0.000000000000000e+00  0.000000000000000e+00
17  0.000000000000000e+00  0.000000000000000e+00  0.000000000000000e+00  0.000000000000000e+00  0.000000000000000e+00  0.000000000000000e+00
18  0.000000000000000e+00  0.000000000000000e+00  0.000000000000000e+00  0.000000000000000e+00  0.000000000000000e+00  0.000000000000000e+00
19  0.000000000000000e+00  0.000000000000000e+00  0.000000000000000e+00  0.000000000000000e+00  0.000000000000000e+00  0.000000000000000e+00
20  0.000000000000000e+00  0.000000000000000e+00  0.000000000000000e+00  0.000000000000000e+00  0.000000000000000e+00  0.000000000000000e+00
21  0.000000000000000e+00  0.000000000000000e+00  0.000000000000000e+00  0.000000000000000e+00  0.000000000000000e+00  0.000000000000000e+00
22  0.000000000000000e+00  0.000000000000000e+00  0.000000000000000e+00  0.000000000000000e+00  0.000000000000000e+00  0.000000000000000e+00
23  0.000000000000000e+00  0.000000000000000e+00  0.000000000000000e+00  0.000000000000000e+00  0.000000000000000e+00  0.000000000000000e+00
24  0.000000000000000e+00  0.000000000000000e+00  0.000000000000000e+00  0.000000000000000e+00  0.000000000000000e+00  0.000000000000000e+00
25  0.000000000000000e+00  0.000000000000000e+00  0.000000000000000e+00  0.000000000000000e+00  0.000000000000000e+00  0.000000000000000e+00
26  0.000000000000000e+00  0.000000000000000e+00  0.000000000000000e+00  0.000000000000000e+00  0.000000000000000e+00  0.000000000000000e+00
27  0.000000000000000e+00  0.000000000000000e+00  0.000000000000000e+00  0.000000000000000e+00  0.000000000000000e+00  0.000000000000000e+00
28  0.000000000000000e+00  0.000000000000000e+00  0.000000000000000e+00  0.000000000000000e+00  0.000000000000000e+00  0.000000000000000e+00
29  0.000000000000000e+00  0.000000000000000e+00  0.000000000000000e+00  0.000000000000000e+00  0.000000000000000e+00  0.000000000000000e+00
30  0.000000000000000e+00  0.000000000000000e+00  0.000000000000000e+00  0.000000000000000e+00  0.000000000000000e+00  0.000000000000000e+00
31  0.000000000000000e+00  0.000000000000000e+00  0.000000000000000e+00  0.000000000000000e+00  0.000000000000000e+00  0.000000000000000e+00
32  0.000000000000000e+00  0.000000000000000e+00  0.000000000000000e+00  0.000000000000000e+00  0.000000000000000e+00  0.000000000000000e+00
33  0.000000000000000e+00  0.000000000000000e+00  0.000000000000000e+00  0.000000000000000e+00  0.000000000000000e+00  0.000000000000000e+00
34  0.000000000000000e+00  0.000000000000000e+00  0.000000000000000e+00  0.000000000000000e+00  0.000000000000000e+00  0.000000000000000e+00
35  0.000000000000000e+00  0.000000000000000e+00  0.000000000000000e+00  0.000000000000000e+00  0.000000000000000e+00  0.000000000000000e+00
36  0.000000000000000e+00  0.000000000000000e+00  0.000000000000000e+00  0.000000000000000e+00  0.000000000000000e+00  0.000000000000000e+00

# Atom-ID, shape, quaternion
Ellipsoids

1  1.173984503142341e+00  1.173984503142341e+00  1.173984503142341e+00  6.074076732398570e-01 -6.822676414294349e-01 -3.579549873431046e-01 -1.934812936277223e-01
2  1.173984503142341e+00  1.173984503142341e+00  1.173984503142341e+00  6.407782351437938e-01 -7.385202532387677e-01 -9.728374026117659e-02  1.858143234601332e-01
3  1.173984503142341e+00  1.173984503142341e+00  1.173984503142341e+00  6.318369308375347e-01 -7.324912488792588e-01 -2.666020175381237e-02  2.520474098013195e-01
4  1.173984503142341e+00  1.173984503142341e+00  1.173984503142341e+00 -4.818741318318616e-01  6.646722019036866e-01 -3.247593102426333e-01 -4.696164131485648e-01
5  1.173984503142341e+00  1.173984503142341e+00  1.173984503142341e+00 -4.579073101649619e-01  6.036390262542287e-01 -3.419517756148592e-01 -5.558865031948345e-01
6  1.173984503142341e+00  1.173984503142341e+00  1.173984503142341e+00  2.292726069644503e-01 -4.059270734018202e-01  5.868123529535756e-01  6.620487483533566e-01
7  1.173984503142341e+00  1.173984503142341e+00  1.173984503142341e+00  4.598176180390025e-02 -2.031725892746768e-01  7.275031038591590e-01  6.537169191814778e-01
8  1.173984503142341e+00  1.173984503142341e+00  1.173984503142341e+00  8.006025101585071e-01 -3.602954050970570e-01  1.482652539121188e-01  4.552364839028392e-01
9  1.173984503142341e+00  1.173984503142341e+00  1.173984503142341e+00  5.345907186336188e-01 -3.578345959561721e-01 -2.389292885838009e-01  7.273788287711657e-01
10  1.173984503142341e+00  1.173984503142341e+00  1.173984503142341e+00  3.002785065117997e-01 -7.209278883577831e-02  5.163127269851114e-01  7.987844617154999e-01
11  1.173984503142341e+00  1.173984503142341e+00  1.173984503142341e+00  2.683716655527923e-01  3.149122635179186e-02  6.584677429523366e-01  7.024280627100085e-01
12  1.173984503142341e+00  1.173984503142341e+00  1.173984503142341e+00 -1.220315639953002e-01  3.014093252847433e-01  6.337663460633756e-01  7.018553516343194e-01
13  1.173984503142341e+00  1.173984503142341e+00  1.173984503142341e+00 -1.603442222638892e-01  2.722192277443583e-01  6.465837241119112e-01  6.943456705031185e-01
14  1.173984503142341e+00  1.173984503142341e+00  1.173984503142341e+00 -5.047025161580226e-02 -1.905359194737669e-01 -4.693451143592813e-01  8.607345588038144e-01
15  1.173984503142341e+00  1.173984503142341e+00  1.173984503142341e+00  7.417374522640044e-01 -1.836770507518709e-01  3.597315357044724e-01 -5.354264796923106e-01
16  1.173984503142341e+00  1.173984503142341e+00  1.173984503142341e+00  6.732459357106566e-01  5.963532177944708e-01  1.530897978170188e-01 -4.094707113819098e-01
17  1.173984503142341e+00  1.173984503142341e+00  1.173984503142341e+00  6.226505680125410e-01  7.050642029960071e-01  7.274465481713033e-02 -3.315101129721412e-01
18  1.173984503142341e+00  1.173984503142341e+00  1.173984503142341e+00  6.828644610658001e-01  7.062728554385604e-01 -1.867191774756748e-01  3.275705539875867e-03
19  1.173984503142341e+00  1.173984503142341e+00  1.173984503142341e+00  5.847279528957919e-01  7.747894836749339e-01 -2.387431069850790e-01  2.821712168412559e-02
20  1.173984503142341e+00  1.173984503142341e+00  1.173984503142341e+00 -5.448764476867497e-02 -1.465166859784951e-01  7.455484563803981e-01  6.478591332120334e-01
21  1.173984503142341e+00  1.173984503142341e+00  1.173984503142341e+00 -3.180970780802183e-01  2.103794610755020e-01  6.462172146259032e-01  6.610280196750727e-01
22  1.173984503142341e+00  1.173984503142341e+00  1.173984503142341e+00 -4.483584042040012e-01  4.418712927956029e-01  6.549270864393208e-01  4.180849356660512e-01
23  1.173984503142341e+00  1.173984503142341e+00  1.173984503142341e+00 -4.653042076085223e-01  4.170758982062289e-01  5.808862098622827e-01  5.216425027824176e-01
24  1.173984503142341e+00  1.173984503142341e+00  1.173984503142341e+00  4.933243568085812e-02 -2.207842174979881e-01  5.417444747615937e-01 -8.095267532076256e-01
25  1.173984503142341e+00  1.173984503142341e+00  1.173984503142341e+00  5.288848085986859e-01 -4.611245653870444e-01  6.424471561293212e-01 -3.080692227592498e-01
26  1.173984503142341e+00  1.173984503142341e+00  1.173984503142341e+00  6.380643040231795e-01  3.994089831050460e-01  4.431322253329916e-01 -4.868061616473642e-01
27  1.173984503142341e+00  1.173984503142341e+00  1.173984503142341e+00  5.914066436790441e-01  4.518366731686417e-01  4.995723169725508e-01 -4.432936980229464e-01
28  1.173984503142341e+00  1.173984503142341e+00  1.173984503142341e+00  6.043907049783159e-01  6.696708600780941e-01  2.639363309940387e-01 -3.414534054296213e-01
29  1.173984503142341e+00  1.173984503142341e+00  1.173984503142341e+00  7.480228212521949e-01  6.603365412188886e-01  7.655988124564027e-03  6.602194379763947e-02
30  1.173984503142341e+00  1.173984503142341e+00  1.173984503142341e+00  7.651929551898231e-01  6.191061772296022e-01 -1.025041584949015e-01  1.438060504125818e-01
31  1.173984503142341e+00  1.173984503142341e+00  1.173984503142341e+00  5.901697702001519e-01  6.926439034617947e-01 -1.800820192798101e-01  3.735164409650717e-01
32  1.173984503142341e+00  1.173984503142341e+00  1.173984503142341e+00  4.859371370584143e-01  4.425947422254859e-01 -4.177095153277598e-01  6.272908047998756e-01
33  1.173984503142341e+00  1.173984503142341e+00  1.173984503142341e+00  3.196805371962944e-01  5.213903281522606e-01 -4.863562587001988e-01  6.240305036376922e-01
34  1.173984503142341e+00  1.173984503142341e+00  1.173984503142341e+00  5.280008890830264e-02 -2.276003220241029e-01  5.962057031429235e-01 -7.680813782182538e-01
35  1.173984503142341e+00  1.173984503142341e+00  1.173984503142341e+00  6.588564462174371e-02 -1.777603846591354e-01  5.932582601403328e-01 -7.823713723378934e-01
36  1.173984503142341e+00  1.173984503142341e+00  1.173984503142341e+00  3.432334622651260e-01  8.260326555835863e-02  6.943479878117655e-01 -6.270951783599855e-01

# Bond topology
Bonds

1  1  1  2
2  1  2  3
3  1  3  4
4  1  4  5
5  1  5  6
6  1  6  7
7  1  7  8
8  1  8  9
9  1  9  10
10  1  10  11
11  1  11  12
12  1  12  13
13  1  13  14
14  1  14  15
15  1  15  16
16  1  16  17
17  1  17  18
18  1  18  19
19  1  19  20
20  1  20  21
21  1  21  22
22  1  22  23
23  1  23  24
24  1  24  25
25  1  25  26
26  1  26  27
27  1  27  28
28  1  28  29
29  1  29  30
30  1  30  31
31  1  31  32
32  1  32  33
33  1  33  34
34  1  34  35
35  1  35  36
