# LAMMPS data file
200 atoms
200 ellipsoids
199 bonds

4 atom types
1 bond types

# System size
-800.000000 800.000000 xlo xhi
-800.000000 800.000000 ylo yhi
-800.000000 800.000000 zlo zhi

Masses

1 3.1575
2 3.1575
3 3.1575
4 3.1575

# Atom-ID, type, position, molecule-ID, ellipsoid flag, density
Atoms

1 1  1.677250314841298e+00  4.735357211466627e+00  1.536042391513159e+01 1 1 1
2 2  2.217644987086171e+00  4.925868748532519e+00  1.530804179384832e+01 1 1 1
3 2  2.577747123737966e+00  5.159303827189481e+00  1.492689011505048e+01 1 1 1
4 1  2.688616619351533e+00  5.516803987278276e+00  1.455511323614165e+01 1 1 1
5 3  2.592790714293006e+00  5.898879100013272e+00  1.419124717988505e+01 1 1 1
6 4  2.234556233857714e+00  6.282677858652265e+00  1.387816975815919e+01 1 1 1
7 4  1.899665414416530e+00  6.679308523127496e+00  1.407555764263912e+01 1 1 1
8 2  1.609374266259685e+00  7.036416999295607e+00  1.441334820380371e+01 1 1 1
9 4  1.606509744071378e+00  7.375446114111293e+00  1.488982742427800e+01 1 1 1
10 3  1.597144665516502e+00  7.228646242739162e+00  1.583138009534796e+01 1 1 1
11 3  1.011203895586839e+00  7.740600467552088e+00  1.616973263779005e+01 1 1 1
12 1  1.370498836688083e+00  8.124554419518025e+00  1.638732416913915e+01 1 1 1
13 3  1.329920271139378e+00  8.838704737793114e+00  1.691664199597782e+01 1 1 1
14 2  1.219963606480394e+00  9.369353134538622e+00  1.706996947640291e+01 1 1 1
15 4  1.034614933082883e+00  9.690625733740314e+00  1.750851725757220e+01 1 1 1
16 3  9.126351358249027e-01  9.830884980144347e+00  1.803562787753810e+01 1 1 1
17 1  9.638092595359556e-01  9.812194497214453e+00  1.867606032145830e+01 1 1 1
18 2  1.071413477342099e+00  9.982460671519137e+00  1.919212843390467e+01 1 1 1
19 4  1.412561634186429e+00  1.025388001878375e+01  1.945484268607655e+01 1 1 1
20 1  2.220196802493116e+00  1.023047450319110e+01  1.960058912676898e+01 1 1 1
21 2  2.158570086874853e+00  1.068783752054473e+01  2.007248767316271e+01 1 1 1
22 4  2.312861000234796e+00  1.073592979572670e+01  2.060022892697816e+01 1 1 1
23 2  2.482983094623151e+00  1.043396337168349e+01  2.117019253345856e+01 1 1 1
24 3  2.497800055126229e+00  9.557392529375134e+00  2.104274324448483e+01 1 1 1
25 4  3.352377318619395e+00  9.724618455036390e+00  2.115259450575252e+01 1 1 1
26 3  3.879171473197423e+00  9.739462213011830e+00  2.105170636095430e+01 1 1 1
27 3  4.398991394183162e+00  9.872352154516776e+00  2.080959502638912e+01 1 1 1
28 4  4.827353838929325e+00  1.015194881427565e+01  2.050270016435783e+01 1 1 1
29 2  4.882448931674102e+00  1.070270016435783e+01  2.028581239727636e+01 1 1 1
30 1  4.730517193536683e+00  1.146308352366112e+01  1.993084164016308e+01 1 1 1
31 3  4.729590534622333e+00  1.191793337893157e+01  2.028290984819870e+01 1 1 1
32 3  4.760777688169298e+00  1.184637136702839e+01  2.120596282042121e+01 1 1 1
33 2  4.776907724818033e+00  1.211112937309227e+01  2.174644869687720e+01 1 1 1
34 3  5.064941760160070e+00  1.214046469369213e+01  2.217349449248139e+01 1 1 1
35 1  5.486878055027855e+00  1.197016478473393e+01  2.246535678456317e+01 1 1 1
36 2  6.146483916412305e+00  1.145386827893872e+01  2.274012679032637e+01 1 1 1
37 4  5.515795961493307e+00  1.209198168584174e+01  2.316325428504344e+01 1 1 1
38 4  5.556938248415120e+00  1.231860178445644e+01  2.360408546607184e+01 1 1 1
39 3  5.924834366099411e+00  1.268268219729065e+01  2.368171748828568e+01 1 1 1
40 4  6.348174454097205e+00  1.310173162714252e+01  2.350496008452689e+01 1 1 1
41 3  6.396378002592974e+00  1.359331645517931e+01  2.336470594240329e+01 1 1 1
42 4  6.238348203803710e+00  1.419160014087814e+01  2.303829537450106e+01 1 1 1
43 1  6.384469252278596e+00  1.467671134922837e+01  2.311960767572414e+01 1 1 1
44 1  6.353033149053341e+00  1.490303955260518e+01  2.366527033661337e+01 1 1 1
45 2  6.480905142052126e+00  1.507930852312749e+01  2.418298896454567e+01 1 1 1
46 3  6.354961871025041e+00  1.436777361495350e+01  2.417880804842941e+01 1 1 1
47 1  6.235901513372751e+00  1.386998655254114e+01  2.430985186450085e+01 1 1 1
48 4  5.671208030054005e+00  1.354165884010331e+01  2.438023597088518e+01 1 1 1
49 1  5.268084697645628e+00  1.331962261734509e+01  2.416993425686781e+01 1 1 1
50 2  4.810196055412067e+00  1.330775416764499e+01  2.375581122329185e+01 1 1 1
51 3  4.716957440509610e+00  1.315993752360730e+01  2.331772614514532e+01 1 1 1
52 2  4.784849729983563e+00  1.310038154496361e+01  2.279864404789857e+01 1 1 1
53 1  5.120749642468357e+00  1.269056436636855e+01  2.260249418344041e+01 1 1 1
54 2  5.995574078422165e+00  1.246012561634187e+01  2.240096266729279e+01 1 1 1
55 3  6.149856569719367e+00  1.224766989597477e+01  2.172887593535939e+01 1 1 1
56 4  5.943842451279641e+00  1.209560342803475e+01  2.124603780230101e+01 1 1 1
57 3  5.748205845421970e+00  1.165667588840001e+01  2.105725471380299e+01 1 1 1
58 2  5.702471237379666e+00  1.101370626907725e+01  2.108724465837051e+01 1 1 1
59 3  5.354875098257397e+00  1.070080239288667e+01  2.120548301805894e+01 1 1 1
60 3  4.952091223700195e+00  1.047266147391202e+01  2.151190828628888e+01 1 1 1
61 1  4.423931140472583e+00  1.043788021089031e+01  2.170952955239172e+01 1 1 1
62 2  3.862837520544729e+00  1.065693824841512e+01  2.166301361822024e+01 1 1 1
63 2  3.506580183141581e+00  1.091922986616576e+01  2.129628433904673e+01 1 1 1
64 3  3.345248425329482e+00  1.094834468185020e+01  2.081787416927835e+01 1 1 1
65 3  3.306067968598466e+00  1.086880978388476e+01  2.030821176638729e+01 1 1 1
66 1  3.351133428675105e+00  1.046355311746249e+01  1.987881278148946e+01 1 1 1
67 3  3.201665016282655e+00  9.970196106454871e+00  1.975393284808640e+01 1 1 1
68 1  3.236376443467309e+00  9.423360157100470e+00  2.029108412132596e+01 1 1 1
69 1  2.498345749108839e+00  9.272241670046320e+00  2.016607078059297e+01 1 1 1
70 4  1.938671049542146e+00  8.690743132190654e+00  1.995868161540268e+01 1 1 1
71 4  1.943813101667058e+00  9.575305235970884e+00  1.995626320732567e+01 1 1 1
72 3  2.398440131894607e+00  9.634574354053310e+00  1.916471002582766e+01 1 1 1
73 3  2.953622507835070e+00  9.627785661055363e+00  1.909803791459518e+01 1 1 1
74 3  3.418545892585522e+00  9.665123472544074e+00  1.877274722582357e+01 1 1 1
75 2  3.688048837755342e+00  9.668196759802768e+00  1.815094505752524e+01 1 1 1
76 2  3.649665414416529e+00  9.954877905611644e+00  1.763566564921343e+01 1 1 1
77 1  3.518042007300050e+00  1.034959123994109e+01  1.733506584985806e+01 1 1 1
78 2  3.324653674571496e+00  1.083242545198403e+01  1.717812866870157e+01 1 1 1
79 2  3.505987320967364e+00  1.128939891993426e+01  1.720272951397041e+01 1 1 1
80 1  4.010822002604111e+00  1.148607761104826e+01  1.714426668658883e+01 1 1 1
81 3  4.236899864226140e+00  1.097357514011250e+01  1.785393080637423e+01 1 1 1
82 1  4.284915366389891e+00  1.053501141966744e+01  1.814294328587590e+01 1 1 1
83 1  4.680217293858994e+00  1.034323571474311e+01  1.883543405408866e+01 1 1 1
84 3  3.860127402840020e+00  1.054774543932542e+01  1.871271578345600e+01 1 1 1
85 3  3.342088875731188e+00  1.061208999867289e+01  1.900472145941586e+01 1 1 1
86 2  2.699888471472176e+00  1.068536628316506e+01  1.913497299835642e+01 1 1 1
87 2  2.250217187133130e+00  1.063743836581357e+01  1.876159309697112e+01 1 1 1
88 2  1.997569852077953e+00  1.043381662362057e+01  1.825888119276826e+01 1 1 1
89 4  1.940214839164123e+00  1.014027940831181e+01  1.783362291617751e+01 1 1 1
90 2  2.129872035689128e+00  9.624688894106596e+00  1.766662362056821e+01 1 1 1
91 1  2.138177976050716e+00  9.047935921791284e+00  1.766329590813038e+01 1 1 1
92 3  1.976693855467194e+00  8.502276509080515e+00  1.764511979746215e+01 1 1 1
93 1  1.779691135349741e+00  8.039333817157249e+00  1.755164998185660e+01 1 1 1
94 1  1.257705607376892e+00  8.091981685841747e+00  1.744656769621550e+01 1 1 1
95 4  6.756926508570087e-01  8.365490725522424e+00  1.741526179854425e+01 1 1 1
96 3  2.978194513919373e-01  8.683029288361221e+00  1.704020641710138e+01 1 1 1
97 3  6.519697418254948e-02  8.850740631093235e+00  1.668900129648723e+01 1 1 1
98 1  1.488238809793166e-01  9.105429144698926e+00  1.618383530064676e+01 1 1 1
99 2  3.263383423338813e-01  9.059215778351726e+00  1.569984738201455e+01 1 1 1
100 4  6.022716600140877e-01  8.809227518196760e+00  1.523430969711199e+01 1 1 1
101 4 -9.643695703216716e-01  8.210172575721998e+00  1.554032636769195e+01 1 1 1
102 3 -5.605418704125279e-01  8.228952499566136e+00  1.603933358514450e+01 1 1 1
103 4 -2.541617750645692e-01  7.837825780699693e+00  1.643351138764968e+01 1 1 1
104 2  2.832531110589340e-01  7.603046489786336e+00  1.653260154965955e+01 1 1 1
105 1  8.200762022668573e-01  6.986531195970030e+00  1.703539563277764e+01 1 1 1
106 2  1.304971824371918e+00  7.166617750645691e+00  1.696820262972529e+01 1 1 1
107 2  1.811992251702277e+00  7.322787039211083e+00  1.736110589340221e+01 1 1 1
108 2  2.411434609063160e+00  7.238629960084528e+00  1.742366752758864e+01 1 1 1
109 4  2.978815449636065e+00  7.062356186898333e+00  1.736129373092275e+01 1 1 1
110 2  3.439633716834937e+00  7.033787274007982e+00  1.707066212725992e+01 1 1 1
111 4  3.749366048368161e+00  7.098679267433670e+00  1.654631955858182e+01 1 1 1
112 4  3.872000469593801e+00  7.351173984503403e+00  1.602303357595680e+01 1 1 1
113 3  3.910797594863051e+00  7.751426646385659e+00  1.568460651102014e+01 1 1 1
114 1  3.483425473329206e+00  8.346896411876454e+00  1.501837285747828e+01 1 1 1
115 3  4.039333585144503e+00  8.057892748859192e+00  1.429876374327511e+01 1 1 1
116 4  3.735542380840572e+00  8.791741019018549e+00  1.455653909368396e+01 1 1 1
117 1  4.425932250421567e+00  8.547364938419177e+00  1.508982582339004e+01 1 1 1
118 3  3.652485274150902e+00  9.153832804189593e+00  1.532624008493523e+01 1 1 1
119 1  4.224705970244829e+00  8.397244338192918e+00  1.559345983905740e+01 1 1 1
120 1  4.895718158338492e+00  8.869468932101006e+00  1.601714551004290e+01 1 1 1
121 2  5.256087109650152e+00  9.169611411129374e+00  1.629631368865931e+01 1 1 1
122 2  5.752629725287626e+00  9.142856304296783e+00  1.660014087814041e+01 1 1 1
123 2  6.293748532519369e+00  8.898978633482040e+00  1.671623033575957e+01 1 1 1
124 2  6.676303122798780e+00  8.514169992956091e+00  1.648185606949988e+01 1 1 1
125 3  6.886036730402113e+00  8.195825719448328e+00  1.599646273364843e+01 1 1 1
126 1  6.827877862921300e+00  8.090524877798886e+00  1.547276889581422e+01 1 1 1
127 2  7.004848555999060e+00  8.359614933082883e+00  1.495290561164593e+01 1 1 1
128 2  7.392474759333175e+00  8.691230335759565e+00  1.475327541676450e+01 1 1 1
129 3  7.879370540134955e+00  8.921297099747850e+00  1.486220994926345e+01 1 1 1
130 1  8.391379751969094e+00  9.151625434907896e+00  1.529591880296271e+01 1 1 1
131 1  8.562205169800851e+00  8.562141134282482e+00  1.485549318021729e+01 1 1 1
132 3  8.713762160948171e+00  7.740232959359719e+00  1.457344549138908e+01 1 1 1
133 3  8.841272190859252e+00  7.280357707973907e+00  1.447108425125310e+01 1 1 1
134 3  8.693875884316588e+00  6.820262972528762e+00  1.416091754545362e+01 1 1 1
135 2  8.428046489786336e+00  6.531574313219064e+00  1.360723174454097e+01 1 1 1
136 3  8.372423614443072e+00  6.434996988474534e+00  1.307044417448472e+01 1 1 1
137 1  8.357158103694850e+00  6.407783517257571e+00  1.253613737753207e+01 1 1 1
138 1  8.435558923349486e+00  7.001259365194562e+00  1.201775384746739e+01 1 1 1
139 4  9.094511622446584e+00  6.949371918290680e+00  1.261651796196290e+01 1 1 1
140 2  9.606762150739607e+00  7.177236440478988e+00  1.317741253815450e+01 1 1 1
141 4  1.004974172340925e+01  6.794828598262503e+00  1.255254167644987e+01 1 1 1
142 1  1.041008345962561e+01  6.558101560332129e+00  1.225692117227689e+01 1 1 1
143 2  1.056480981451045e+01  6.161974641934727e+00  1.189106597792909e+01 1 1 1
144 3  1.044598140000204e+01  5.654450422123993e+00  1.129037741049644e+01 1 1 1
145 1  9.886390317829623e+00  6.565972592798139e+00  1.114966701530449e+01 1 1 1
146 1  9.454844286964500e+00  6.440655083352897e+00  1.148597088518431e+01 1 1 1
147 1  9.343651945612498e+00  6.265464577685756e+00  1.201682533245107e+01 1 1 1
148 3  9.563522770195080e+00  6.148223199975502e+00  1.268718417264718e+01 1 1 1
149 4  9.440068091101196e+00  6.075692650857009e+00  1.322607419582061e+01 1 1 1
150 2  9.531227987790560e+00  6.461287861000233e+00  1.360983212021601e+01 1 1 1
151 3  9.600069418214115e+00  7.029798789264676e+00  1.379607378747818e+01 1 1 1
152 2  9.609274477576898e+00  7.682049776942944e+00  1.388054707677859e+01 1 1 1
153 2  9.337555764263911e+00  8.197288095797134e+00  1.372888588870627e+01 1 1 1
154 1  8.978996349975452e+00  8.467752780208754e+00  1.383505517727166e+01 1 1 1
155 1  8.506531622873485e+00  8.426108348097078e+00  1.398247027684689e+01 1 1 1
156 4  8.035513031227987e+00  7.904754637238787e+00  1.417549307349143e+01 1 1 1
157 1  7.677255651134497e+00  7.615103844265620e+00  1.449132318726120e+01 1 1 1
158 3  7.562971507906528e+00  7.498351317414783e+00  1.500023479690068e+01 1 1 1
159 3  7.693191910736342e+00  7.498106311953203e+00  1.560447951652256e+01 1 1 1
160 2  7.897194177036862e+00  7.620650387414884e+00  1.618202042733035e+01 1 1 1
161 1  7.837130995325408e+00  8.037327370915067e+00  1.645839825823390e+01 1 1 1
162 1  7.666358940425620e+00  8.567658861448484e+00  1.655121240581442e+01 1 1 1
163 3  7.667747072695163e+00  9.412512633094112e+00  1.681895117245321e+01 1 1 1
164 3  7.437375583164043e+00  9.472932000775847e+00  1.735594699715181e+01 1 1 1
165 2  7.328709791030758e+00  9.453504343742662e+00  1.799579713547781e+01 1 1 1
166 2  7.328838929326132e+00  9.804807466541442e+00  1.847940244188776e+01 1 1 1
167 4  7.340267668466775e+00  1.032894458793144e+01  1.870089809814510e+01 1 1 1
168 3  7.340547383035413e+00  1.090220198658595e+01  1.866511836826362e+01 1 1 1
169 4  7.415772481803240e+00  1.159680089222822e+01  1.834687720122094e+01 1 1 1
170 1  6.907479348545327e+00  1.130886998655254e+01  1.840877073149907e+01 1 1 1
171 4  6.201760976755107e+00  1.129908429208734e+01  1.852826367691946e+01 1 1 1
172 2  5.709327306879548e+00  1.127777647335055e+01  1.874171166940597e+01 1 1 1
173 3  5.523076451912574e+00  1.126364629378196e+01  1.921545167777698e+01 1 1 1
174 1  5.449785481013467e+00  1.123698478089180e+01  1.970171721915089e+01 1 1 1
175 4  5.718402207090866e+00  1.150466071847851e+01  2.014178210847617e+01 1 1 1
176 3  6.111446859336239e+00  1.217155486591055e+01  2.024307604357014e+01 1 1 1
177 3  6.306910174872648e+00  1.258243923354125e+01  2.051543534407955e+01 1 1 1
178 3  6.394081076390660e+00  1.311577018487704e+01  2.057952979368498e+01 1 1 1
179 1  6.222043159939379e+00  1.365418151934940e+01  2.037393007321394e+01 1 1 1
180 2  5.854907255224230e+00  1.405653909368396e+01  2.015207795257103e+01 1 1 1
181 3  5.326883224271873e+00  1.418642873914064e+01  2.015338873179047e+01 1 1 1
182 4  5.239346090631604e+00  1.341233270720826e+01  1.957015144400093e+01 1 1 1
183 1  4.771676022967407e+00  1.405923285448996e+01  1.896118913957608e+01 1 1 1
184 2  5.179942474759333e+00  1.429720004695938e+01  1.924563277764733e+01 1 1 1
185 1  5.042359495400115e+00  1.467934747806783e+01  2.004123887382868e+01 1 1 1
186 2  4.525974407137825e+00  1.452641465132660e+01  2.022177154261563e+01 1 1 1
187 3  4.288626642302234e+00  1.435833069612177e+01  2.065383790847004e+01 1 1 1
188 3  4.214752391355391e+00  1.406096552568984e+01  2.116625151852343e+01 1 1 1
189 2  4.425287626203334e+00  1.385756633012444e+01  2.177836933552477e+01 1 1 1
190 1  4.497246472710196e+00  1.399662746269931e+01  2.231085508762193e+01 1 1 1
191 1  4.488649704369355e+00  1.432882238681722e+01  2.272971141326389e+01 1 1 1
192 2  4.269705329889646e+00  1.479522188307114e+01  2.285557642639117e+01 1 1 1
193 2  3.791030758393988e+00  1.500917468889410e+01  2.266979337872740e+01 1 1 1
194 1  3.300561378044355e+00  1.495748575209717e+01  2.253315438963478e+01 1 1 1
195 4  3.530083352899742e+00  1.465912185959145e+01  2.178219065508335e+01 1 1 1
196 3  3.854461651540982e+00  1.495777228784058e+01  2.141840807701338e+01 1 1 1
197 2  4.246031932378492e+00  1.534037919699460e+01  2.112064451749237e+01 1 1 1
198 4  4.858810753698052e+00  1.541037215308758e+01  2.105859356656492e+01 1 1 1
199 3  5.332273344426635e+00  1.519069591759650e+01  2.098093551252080e+01 1 1 1
200 4  5.728680441418174e+00  1.472417234092510e+01  2.113850082178915e+01 1 1 1

# Atom-ID, translational, rotational velocity
Velocities

1  0.000000000000000e+00  0.000000000000000e+00  0.000000000000000e+00  0.000000000000000e+00  0.000000000000000e+00  0.000000000000000e+00
2  0.000000000000000e+00  0.000000000000000e+00  0.000000000000000e+00  0.000000000000000e+00  0.000000000000000e+00  0.000000000000000e+00
3  0.000000000000000e+00  0.000000000000000e+00  0.000000000000000e+00  0.000000000000000e+00  0.000000000000000e+00  0.000000000000000e+00
4  0.000000000000000e+00  0.000000000000000e+00  0.000000000000000e+00  0.000000000000000e+00  0.000000000000000e+00  0.000000000000000e+00
5  0.000000000000000e+00  0.000000000000000e+00  0.000000000000000e+00  0.000000000000000e+00  0.000000000000000e+00  0.000000000000000e+00
6  0.000000000000000e+00  0.000000000000000e+00  0.000000000000000e+00  0.000000000000000e+00  0.000000000000000e+00  0.000000000000000e+00
7  0.000000000000000e+00  0.000000000000000e+00  0.000000000000000e+00  0.000000000000000e+00  0.000000000000000e+00  0.000000000000000e+00
8  0.000000000000000e+00  0.000000000000000e+00  0.000000000000000e+00  0.000000000000000e+00  0.000000000000000e+00  0.000000000000000e+00
9  0.000000000000000e+00  0.000000000000000e+00  0.000000000000000e+00  0.000000000000000e+00  0.000000000000000e+00  0.000000000000000e+00
10  0.000000000000000e+00  0.000000000000000e+00  0.000000000000000e+00  0.000000000000000e+00  0.000000000000000e+00  0.000000000000000e+00
11  0.000000000000000e+00  0.000000000000000e+00  0.000000000000000e+00  0.000000000000000e+00  0.000000000000000e+00  0.000000000000000e+00
12  0.000000000000000e+00  0.000000000000000e+00  0.000000000000000e+00  0.000000000000000e+00  0.000000000000000e+00  0.000000000000000e+00
13  0.000000000000000e+00  0.000000000000000e+00  0.000000000000000e+00  0.000000000000000e+00  0.000000000000000e+00  0.000000000000000e+00
14  0.000000000000000e+00  0.000000000000000e+00  0.000000000000000e+00  0.000000000000000e+00  0.000000000000000e+00  0.000000000000000e+00
15  0.000000000000000e+00  0.000000000000000e+00  0.000000000000000e+00  0.000000000000000e+00  0.000000000000000e+00  0.000000000000000e+00
16  0.000000000000000e+00  0.000000000000000e+00  0.000000000000000e+00  0.000000000000000e+00  0.000000000000000e+00  0.000000000000000e+00
17  0.000000000000000e+00  0.000000000000000e+00  0.000000000000000e+00  0.000000000000000e+00  0.000000000000000e+00  0.000000000000000e+00
18  0.000000000000000e+00  0.000000000000000e+00  0.000000000000000e+00  0.000000000000000e+00  0.000000000000000e+00  0.000000000000000e+00
19  0.000000000000000e+00  0.000000000000000e+00  0.000000000000000e+00  0.000000000000000e+00  0.000000000000000e+00  0.000000000000000e+00
20  0.000000000000000e+00  0.000000000000000e+00  0.000000000000000e+00  0.000000000000000e+00  0.000000000000000e+00  0.000000000000000e+00
21  0.000000000000000e+00  0.000000000000000e+00  0.000000000000000e+00  0.000000000000000e+00  0.000000000000000e+00  0.000000000000000e+00
22  0.000000000000000e+00  0.000000000000000e+00  0.000000000000000e+00  0.000000000000000e+00  0.000000000000000e+00  0.000000000000000e+00
23  0.000000000000000e+00  0.000000000000000e+00  0.000000000000000e+00  0.000000000000000e+00  0.000000000000000e+00  0.000000000000000e+00
24  0.000000000000000e+00  0.000000000000000e+00  0.000000000000000e+00  0.000000000000000e+00  0.000000000000000e+00  0.000000000000000e+00
25  0.000000000000000e+00  0.000000000000000e+00  0.000000000000000e+00  0.000000000000000e+00  0.000000000000000e+00  0.000000000000000e+00
26  0.000000000000000e+00  0.000000000000000e+00  0.000000000000000e+00  0.000000000000000e+00  0.000000000000000e+00  0.000000000000000e+00
27  0.000000000000000e+00  0.000000000000000e+00  0.000000000000000e+00  0.000000000000000e+00  0.000000000000000e+00  0.000000000000000e+00
28  0.000000000000000e+00  0.000000000000000e+00  0.000000000000000e+00  0.000000000000000e+00  0.000000000000000e+00  0.000000000000000e+00
29  0.000000000000000e+00  0.000000000000000e+00  0.000000000000000e+00  0.000000000000000e+00  0.000000000000000e+00  0.000000000000000e+00
30  0.000000000000000e+00  0.000000000000000e+00  0.000000000000000e+00  0.000000000000000e+00  0.000000000000000e+00  0.000000000000000e+00
31  0.000000000000000e+00  0.000000000000000e+00  0.000000000000000e+00  0.000000000000000e+00  0.000000000000000e+00  0.000000000000000e+00
32  0.000000000000000e+00  0.000000000000000e+00  0.000000000000000e+00  0.000000000000000e+00  0.000000000000000e+00  0.000000000000000e+00
33  0.000000000000000e+00  0.000000000000000e+00  0.000000000000000e+00  0.000000000000000e+00  0.000000000000000e+00  0.000000000000000e+00
34  0.000000000000000e+00  0.000000000000000e+00  0.000000000000000e+00  0.000000000000000e+00  0.000000000000000e+00  0.000000000000000e+00
35  0.000000000000000e+00  0.000000000000000e+00  0.000000000000000e+00  0.000000000000000e+00  0.000000000000000e+00  0.000000000000000e+00
36  0.000000000000000e+00  0.000000000000000e+00  0.000000000000000e+00  0.000000000000000e+00  0.000000000000000e+00  0.000000000000000e+00
37  0.000000000000000e+00  0.000000000000000e+00  0.000000000000000e+00  0.000000000000000e+00  0.000000000000000e+00  0.000000000000000e+00
38  0.000000000000000e+00  0.000000000000000e+00  0.000000000000000e+00  0.000000000000000e+00  0.000000000000000e+00  0.000000000000000e+00
39  0.000000000000000e+00  0.000000000000000e+00  0.000000000000000e+00  0.000000000000000e+00  0.000000000000000e+00  0.000000000000000e+00
40  0.000000000000000e+00  0.000000000000000e+00  0.000000000000000e+00  0.000000000000000e+00  0.000000000000000e+00  0.000000000000000e+00
41  0.000000000000000e+00  0.000000000000000e+00  0.000000000000000e+00  0.000000000000000e+00  0.000000000000000e+00  0.000000000000000e+00
42  0.000000000000000e+00  0.000000000000000e+00  0.000000000000000e+00  0.000000000000000e+00  0.000000000000000e+00  0.000000000000000e+00
43  0.000000000000000e+00  0.000000000000000e+00  0.000000000000000e+00  0.000000000000000e+00  0.000000000000000e+00  0.000000000000000e+00
44  0.000000000000000e+00  0.000000000000000e+00  0.000000000000000e+00  0.000000000000000e+00  0.000000000000000e+00  0.000000000000000e+00
45  0.000000000000000e+00  0.000000000000000e+00  0.000000000000000e+00  0.000000000000000e+00  0.000000000000000e+00  0.000000000000000e+00
46  0.000000000000000e+00  0.000000000000000e+00  0.000000000000000e+00  0.000000000000000e+00  0.000000000000000e+00  0.000000000000000e+00
47  0.000000000000000e+00  0.000000000000000e+00  0.000000000000000e+00  0.000000000000000e+00  0.000000000000000e+00  0.000000000000000e+00
48  0.000000000000000e+00  0.000000000000000e+00  0.000000000000000e+00  0.000000000000000e+00  0.000000000000000e+00  0.000000000000000e+00
49  0.000000000000000e+00  0.000000000000000e+00  0.000000000000000e+00  0.000000000000000e+00  0.000000000000000e+00  0.000000000000000e+00
50  0.000000000000000e+00  0.000000000000000e+00  0.000000000000000e+00  0.000000000000000e+00  0.000000000000000e+00  0.000000000000000e+00
51  0.000000000000000e+00  0.000000000000000e+00  0.000000000000000e+00  0.000000000000000e+00  0.000000000000000e+00  0.000000000000000e+00
52  0.000000000000000e+00  0.000000000000000e+00  0.000000000000000e+00  0.000000000000000e+00  0.000000000000000e+00  0.000000000000000e+00
53  0.000000000000000e+00  0.000000000000000e+00  0.000000000000000e+00  0.000000000000000e+00  0.000000000000000e+00  0.000000000000000e+00
54  0.000000000000000e+00  0.000000000000000e+00  0.000000000000000e+00  0.000000000000000e+00  0.000000000000000e+00  0.000000000000000e+00
55  0.000000000000000e+00  0.000000000000000e+00  0.000000000000000e+00  0.000000000000000e+00  0.000000000000000e+00  0.000000000000000e+00
56  0.000000000000000e+00  0.000000000000000e+00  0.000000000000000e+00  0.000000000000000e+00  0.000000000000000e+00  0.000000000000000e+00
57  0.000000000000000e+00  0.000000000000000e+00  0.000000000000000e+00  0.000000000000000e+00  0.000000000000000e+00  0.000000000000000e+00
58  0.000000000000000e+00  0.000000000000000e+00  0.000000000000000e+00  0.000000000000000e+00  0.000000000000000e+00  0.000000000000000e+00
59  0.000000000000000e+00  0.000000000000000e+00  0.000000000000000e+00  0.000000000000000e+00  0.000000000000000e+00  0.000000000000000e+00
60  0.000000000000000e+00  0.000000000000000e+00  0.000000000000000e+00  0.000000000000000e+00  0.000000000000000e+00  0.000000000000000e+00
61  0.000000000000000e+00  0.000000000000000e+00  0.000000000000000e+00  0.000000000000000e+00  0.000000000000000e+00  0.000000000000000e+00
62  0.000000000000000e+00  0.000000000000000e+00  0.000000000000000e+00  0.000000000000000e+00  0.000000000000000e+00  0.000000000000000e+00
63  0.000000000000000e+00  0.000000000000000e+00  0.000000000000000e+00  0.000000000000000e+00  0.000000000000000e+00  0.000000000000000e+00
64  0.000000000000000e+00  0.000000000000000e+00  0.000000000000000e+00  0.000000000000000e+00  0.000000000000000e+00  0.000000000000000e+00
65  0.000000000000000e+00  0.000000000000000e+00  0.000000000000000e+00  0.000000000000000e+00  0.000000000000000e+00  0.000000000000000e+00
66  0.000000000000000e+00  0.000000000000000e+00  0.000000000000000e+00  0.000000000000000e+00  0.000000000000000e+00  0.000000000000000e+00
67  0.000000000000000e+00  0.000000000000000e+00  0.000000000000000e+00  0.000000000000000e+00  0.000000000000000e+00  0.000000000000000e+00
68  0.000000000000000e+00  0.000000000000000e+00  0.000000000000000e+00  0.000000000000000e+00  0.000000000000000e+00  0.000000000000000e+00
69  0.000000000000000e+00  0.000000000000000e+00  0.000000000000000e+00  0.000000000000000e+00  0.000000000000000e+00  0.000000000000000e+00
70  0.000000000000000e+00  0.000000000000000e+00  0.000000000000000e+00  0.000000000000000e+00  0.000000000000000e+00  0.000000000000000e+00
71  0.000000000000000e+00  0.000000000000000e+00  0.000000000000000e+00  0.000000000000000e+00  0.000000000000000e+00  0.000000000000000e+00
72  0.000000000000000e+00  0.000000000000000e+00  0.000000000000000e+00  0.000000000000000e+00  0.000000000000000e+00  0.000000000000000e+00
73  0.000000000000000e+00  0.000000000000000e+00  0.000000000000000e+00  0.000000000000000e+00  0.000000000000000e+00  0.000000000000000e+00
74  0.000000000000000e+00  0.000000000000000e+00  0.000000000000000e+00  0.000000000000000e+00  0.000000000000000e+00  0.000000000000000e+00
75  0.000000000000000e+00  0.000000000000000e+00  0.000000000000000e+00  0.000000000000000e+00  0.000000000000000e+00  0.000000000000000e+00
76  0.000000000000000e+00  0.000000000000000e+00  0.000000000000000e+00  0.000000000000000e+00  0.000000000000000e+00  0.000000000000000e+00
77  0.000000000000000e+00  0.000000000000000e+00  0.000000000000000e+00  0.000000000000000e+00  0.000000000000000e+00  0.000000000000000e+00
78  0.000000000000000e+00  0.000000000000000e+00  0.000000000000000e+00  0.000000000000000e+00  0.000000000000000e+00  0.000000000000000e+00
79  0.000000000000000e+00  0.000000000000000e+00  0.000000000000000e+00  0.000000000000000e+00  0.000000000000000e+00  0.000000000000000e+00
80  0.000000000000000e+00  0.000000000000000e+00  0.000000000000000e+00  0.000000000000000e+00  0.000000000000000e+00  0.000000000000000e+00
81  0.000000000000000e+00  0.000000000000000e+00  0.000000000000000e+00  0.000000000000000e+00  0.000000000000000e+00  0.000000000000000e+00
82  0.000000000000000e+00  0.000000000000000e+00  0.000000000000000e+00  0.000000000000000e+00  0.000000000000000e+00  0.000000000000000e+00
83  0.000000000000000e+00  0.000000000000000e+00  0.000000000000000e+00  0.000000000000000e+00  0.000000000000000e+00  0.000000000000000e+00
84  0.000000000000000e+00  0.000000000000000e+00  0.000000000000000e+00  0.000000000000000e+00  0.000000000000000e+00  0.000000000000000e+00
85  0.000000000000000e+00  0.000000000000000e+00  0.000000000000000e+00  0.000000000000000e+00  0.000000000000000e+00  0.000000000000000e+00
86  0.000000000000000e+00  0.000000000000000e+00  0.000000000000000e+00  0.000000000000000e+00  0.000000000000000e+00  0.000000000000000e+00
87  0.000000000000000e+00  0.000000000000000e+00  0.000000000000000e+00  0.000000000000000e+00  0.000000000000000e+00  0.000000000000000e+00
88  0.000000000000000e+00  0.000000000000000e+00  0.000000000000000e+00  0.000000000000000e+00  0.000000000000000e+00  0.000000000000000e+00
89  0.000000000000000e+00  0.000000000000000e+00  0.000000000000000e+00  0.000000000000000e+00  0.000000000000000e+00  0.000000000000000e+00
90  0.000000000000000e+00  0.000000000000000e+00  0.000000000000000e+00  0.000000000000000e+00  0.000000000000000e+00  0.000000000000000e+00
91  0.000000000000000e+00  0.000000000000000e+00  0.000000000000000e+00  0.000000000000000e+00  0.000000000000000e+00  0.000000000000000e+00
92  0.000000000000000e+00  0.000000000000000e+00  0.000000000000000e+00  0.000000000000000e+00  0.000000000000000e+00  0.000000000000000e+00
93  0.000000000000000e+00  0.000000000000000e+00  0.000000000000000e+00  0.000000000000000e+00  0.000000000000000e+00  0.000000000000000e+00
94  0.000000000000000e+00  0.000000000000000e+00  0.000000000000000e+00  0.000000000000000e+00  0.000000000000000e+00  0.000000000000000e+00
95  0.000000000000000e+00  0.000000000000000e+00  0.000000000000000e+00  0.000000000000000e+00  0.000000000000000e+00  0.000000000000000e+00
96  0.000000000000000e+00  0.000000000000000e+00  0.000000000000000e+00  0.000000000000000e+00  0.000000000000000e+00  0.000000000000000e+00