# LAMMPS data file
290 atoms
290 ellipsoids
288 bonds

4 atom types
1 bond types

# System size
-1000.000000 1000.000000 xlo xhi
-1000.000000 1000.000000 ylo yhi
-1000.000000 1000.000000 zlo zhi

Masses

1 3.1575
2 3.1575
3 3.1575
4 3.1575

# Atom-ID, type, position, molecule-ID, ellipsoid flag, density
Atoms

1 4 -6.371818501995775e+00 -4.374154731157549e+00  1.026789739375440e+01 1 1 1
2 1 -6.231906662641576e+00 -4.230872438198101e+00  9.770782320911460e+00 1 1 1
3 3 -6.041745821682426e+00 -4.290032871566095e+00  9.255101496296612e+00 1 1 1
4 4 -5.904537450105659e+00 -4.543871800892229e+00  8.744576191594270e+00 1 1 1
5 4 -6.050035219535103e+00 -4.926156374735853e+00  8.367627377318616e+00 1 1 1
6 1 -6.417217321302786e+00 -5.227244267042340e+00  8.105837498183119e+00 1 1 1
7 4 -6.940484855599905e+00 -5.453392815214839e+00  7.861780934491662e+00 1 1 1
8 1 -7.372292847639171e+00 -5.369771576158051e+00  7.565916434664967e+00 1 1 1
9 3 -7.701733228030481e+00 -5.069259749407672e+00  7.229668722918312e+00 1 1 1
10 3 -7.851805801617964e+00 -4.741344532433990e+00  6.851597686183268e+00 1 1 1
11 4 -7.775939187602721e+00 -4.233370509509274e+00  6.503410424982390e+00 1 1 1
12 3 -7.468313090994473e+00 -3.980885397767296e+00  6.137201434395611e+00 1 1 1
13 3 -7.026302589169459e+00 -3.857115413349272e+00  5.806441973147773e+00 1 1 1
14 1 -6.691202942787821e+00 -4.038920381489059e+00  5.430198235669003e+00 1 1 1
15 2 -6.587505097564292e+00 -4.434992152840424e+00  4.987042918401899e+00 1 1 1
16 3 -6.721306751478152e+00 -4.538037097910308e+00  4.489023244893167e+00 1 1 1
17 4 -7.048209673632309e+00 -4.517592157783516e+00  3.958135712608593e+00 1 1 1
18 2 -7.232139988383734e+00 -4.339083797778080e+00  3.420669541898888e+00 1 1 1
19 4 -7.370198403381075e+00 -3.970996712843389e+00  2.996331298426860e+00 1 1 1
20 1 -7.362135086483525e+00 -3.513674124263464e+00  2.672475094757321e+00 1 1 1
21 4 -7.147945527119040e+00 -3.075281756280817e+00  2.391711669405963e+00 1 1 1
22 3 -6.715879741296506e+00 -2.890766078251404e+00  2.213521099703303e+00 1 1 1
23 1 -6.196245485750064e+00 -2.818205704446605e+00  2.202903655005087e+00 1 1 1
24 4 -5.641001408781404e+00 -2.910072787039211e+00  2.324113641699930e+00 1 1 1
25 3 -5.236787338043499e+00 -3.235906849665948e+00  2.153893359516745e+00 1 1 1
26 3 -4.984482059382271e+00 -3.678344254946744e+00  1.882478814916007e+00 1 1 1
27 4 -4.870955623385770e+00 -3.968865930969711e+00  1.387315097440714e+00 1 1 1
28 4 -4.782818736792675e+00 -4.007143695703217e+00  8.043320028175627e-01 1 1 1
29 4 -4.521483916412303e+00 -3.818983329420051e+00  2.781227987790562e-01 1 1 1
30 4 -4.165097440713782e+00 -3.536557877436018e+00 -6.763324724113641e-02 1 1 1
31 2 -3.744238207634606e+00 -3.137745455444199e+00 -1.996762274316926e-01 1 1 1
32 1 -3.286077661870101e+00 -2.881930701371885e+00 -1.307595120696787e-02 1 1 1
33 2 -2.801491578205904e+00 -2.719022256274638e+00  2.654749694146142e-01 1 1 1
34 1 -2.389572781448808e+00 -2.908820536902246e+00  5.720994197162311e-01 1 1 1
35 4 -2.119910777177741e+00 -3.216453392815214e+00  9.778645221883072e-01 1 1 1
36 1 -1.854929057793580e+00 -3.720658773018482e+00  1.061382618320867e+00 1 1 1
37 1 -1.503063540513646e+00 -4.129143885776898e+00  9.677210165587719e-01 1 1 1
38 1 -1.049955835821062e+00 -4.364991782108475e+00  7.397667684119903e-01 1 1 1
39 2 -4.955697532160995e-01 -4.206794280841808e+00  5.026630911629861e-01 1 1 1
40 2  8.882737484707307e-02 -3.943883540737262e+00  5.580195499314147e-01 1 1 1
41 4  5.117163653439775e-01 -3.613553651091806e+00  7.855717304531580e-01 1 1 1
42 4  7.379255693824841e-01 -3.276514440009391e+00  1.200921577835173e+00 1 1 1
43 4  8.938248415120917e-01 -3.104772247006340e+00  1.758934022070908e+00 1 1 1
44 3  8.996083160793188e-01 -3.223281179961151e+00  2.291943264530726e+00 1 1 1
45 1  7.989523585907713e-01 -3.499323561309942e+00  2.789616386587507e+00 1 1 1
46 2  8.361673731169905e-01 -3.896423672470681e+00  3.155318149800422e+00 1 1 1
47 3  1.211786804414182e+00 -4.299195286985848e+00  3.258217891523831e+00 1 1 1
48 1  1.666208253670099e+00 -4.516888605641834e+00  3.459212424110287e+00 1 1 1
49 3  2.242545198403381e+00 -4.383135178979274e+00  3.680233302738585e+00 1 1 1
50 3  2.658856112190228e+00 -4.263618220239493e+00  4.001045913466669e+00 1 1 1
51 4  2.858135712608593e+00 -3.821877201220944e+00  4.464328480864052e+00 1 1 1
52 1  2.834825970773376e+00 -3.539954605932535e+00  4.963846867697536e+00 1 1 1
53 3  2.635029563064313e+00 -3.313373818011057e+00  5.443488655040663e+00 1 1 1
54 4  2.201397041559051e+00 -3.271008452688425e+00  5.900058699225170e+00 1 1 1
55 4  1.861927682554590e+00 -3.542521718713314e+00  6.235448462080301e+00 1 1 1
56 4  1.718554825076309e+00 -4.015749002113171e+00  6.529549189950693e+00 1 1 1
57 4  1.850035219535102e+00 -4.404531580183141e+00  6.942498239023243e+00 1 1 1
58 2  2.124862520235785e+00 -4.550129138295373e+00  7.430493938532643e+00 1 1 1
59 2  2.277536115470644e+00 -4.375570000370732e+00  8.058476786001160e+00 1 1 1
60 3  2.128279152169736e+00 -4.191930457427053e+00  8.560540246323294e+00 1 1 1
61 4  1.930869922517023e+00 -3.807472411364170e+00  8.986816154026764e+00 1 1 1
62 1  1.554282807276468e+00 -3.491066536969331e+00  9.141660796744146e+00 1 1 1
63 2  1.061022478713807e+00 -3.149052779871726e+00  9.144894403183351e+00 1 1 1
64 1  5.262972528762619e-01 -3.128758148011493e+00  9.115016938919263e+00 1 1 1
65 1  2.180256934894174e-02 -3.317736110645245e+00  9.027258802088573e+00 1 1 1
66 3 -4.072285427650537e-01 -3.713521099703303e+00  9.126395440671091e+00 1 1 1
67 4 -7.050363935196055e-01 -4.049964780464897e+00  9.431879549189949e+00 1 1 1
68 2 -9.387797975803559e-01 -4.182801744911704e+00  9.970242582271597e+00 1 1 1
69 3 -1.251969092189801e+00 -3.987673162714251e+00  1.034471920425196e+01 1 1 1
70 1 -1.553108822773063e+00 -3.685987097351267e+00  1.068240364941468e+01 1 1 1
71 2 -1.883497485201616e+00 -3.168911654576685e+00  1.079662881081549e+01 1 1 1
72 4 -2.255494247475934e+00 -2.724002113172105e+00  1.073428621742193e+01 1 1 1
73 1 -2.600862040049642e+00 -2.440188284752737e+00  1.046137590983799e+01 1 1 1
74 1 -2.905030244076968e+00 -2.288420040474513e+00  1.003125593980254e+01 1 1 1
75 3 -3.256291489679609e+00 -2.425814851971226e+00  9.603299963713207e+00 1 1 1
76 4 -3.684221648274243e+00 -2.694494012679032e+00  9.325316975815916e+00 1 1 1
77 2 -4.182183858330966e+00 -3.018005214962742e+00  9.371807071094027e+00 1 1 1
78 3 -4.674304680996394e+00 -3.034984738201456e+00  9.620157313923457e+00 1 1 1
79 1 -5.152634756649784e+00 -2.895425932758640e+00  9.766757231185501e+00 1 1 1
80 2 -5.556338898431803e+00 -2.421454257856428e+00  9.903449042893685e+00 1 1 1
81 4 -5.895480159661892e+00 -2.002066212725992e+00  9.696988729748767e+00 1 1 1
82 4 -6.052535806527353e+00 -1.574823902324489e+00  9.377365578774361e+00 1 1 1
83 3 -6.109660825204379e+00 -1.332888642233559e+00  8.902180409400415e+00 1 1 1
84 4 -6.146413477342099e+00 -1.202195351021367e+00  8.277923221413479e+00 1 1 1
85 1 -6.157794698062367e+00 -1.346163306834826e+00  7.769736915663190e+00 1 1 1
86 2 -6.232702265172204e+00 -1.782652216359165e+00  7.309530282621322e+00 1 1 1
87 3 -6.638978420030310e+00 -1.970431599393797e+00  6.983633588763903e+00 1 1 1
88 3 -7.126699609383338e+00 -1.962005592435270e+00  6.624415675894895e+00 1 1 1
89 1 -7.427609879359114e+00 -1.783483715157817e+00  6.227076554970427e+00 1 1 1
90 1 -7.719529511734256e+00 -1.418614921902078e+00  5.894011560952157e+00 1 1 1
91 1 -7.729748767316269e+00 -9.490323013450510e-01  5.607643198157403e+00 1 1 1
92 1 -7.467972584666644e+00 -5.914310312056261e-01  5.319776607520209e+00 1 1 1
93 2 -6.921942388255211e+00 -3.282769614809505e-01  5.102878115693084e+00 1 1 1
94 4 -6.437215308757924e+00 -3.585231274947170e-01  4.817263442122564e+00 1 1 1
95 1 -6.089401715135456e+00 -5.882333210344481e-01  4.495438231643913e+00 1 1 1
96 2 -5.912358967387945e+00 -1.013914805798247e+00  4.058693046304420e+00 1 1 1
97 2 -6.028150912618480e+00 -1.336760544234500e+00  3.574418259784235e+00 1 1 1
98 4 -6.187256398215543e+00 -1.298145104484621e+00  3.038899976520311e+00 1 1 1
99 2 -6.287428479628280e+00 -9.856217792661980e-01  2.527057253370571e+00 1 1 1
100 3 -6.013180644197314e+00 -6.325428504343742e-01  2.208398258233900e+00 1 1 1
101 4 -5.699277999530405e+00 -1.642932613289505e-01  1.979613759098380e+00 1 1 1
102 2 -5.258251875285773e+00  2.045451736879178e-01  1.780409288071082e+00 1 1 1
103 1 -4.713162043403885e+00  2.629557575554288e-01  1.795217969789465e+00 1 1 1
104 1 -4.176595221324031e+00  1.612831091581972e-01  1.872628271783003e+00 1 1 1
105 1 -3.770620199241941e+00 -1.793624705106273e-01  1.974071713681951e+00 1 1 1
106 3 -3.503372537300690e+00 -6.223451941343464e-01  1.750752417340818e+00 1 1 1
107 3 -3.219284296356379e+00 -8.560374821234176e-01  1.391278362398343e+00 1 1 1
108 4 -2.991077717774125e+00 -9.238084057290443e-01  8.145691476872507e-01 1 1 1
109 4 -2.597423104015027e+00 -8.786687015731391e-01  3.756809110119746e-01 1 1 1
110 4 -2.125915707912656e+00 -6.331885419112467e-01  6.731627142521718e-02 1 1 1
111 1 -1.666510135399546e+00 -3.261552566553740e-01  3.260881718266084e-02 1 1 1
112 4 -1.205934491664710e+00  5.737262268138060e-02  2.760096266729279e-01 1 1 1
113 3 -8.017993980661274e-01  8.079681530021984e-02  6.156961728105189e-01 1 1 1
114 4 -5.312338577130781e-01  8.848908194411834e-02  1.143067621507396e+00 1 1 1
115 3 -3.506051356485730e-01 -2.328971803026746e-01  1.515437896219770e+00 1 1 1
116 1 -1.619763190554456e-01 -6.347957826004317e-01  1.829923187871063e+00 1 1 1
117 1  1.233075056742584e-01 -1.113809412001476e+00  1.847834837151578e+00 1 1 1
118 1  5.411733136551170e-01 -1.401100191191762e+00  1.695160947685014e+00 1 1 1
119 1  1.064490882053690e+00 -1.438511164033587e+00  1.633906908619282e+00 1 1 1
120 2  1.560435486462105e+00 -1.190735408608396e+00  1.730552019871232e+00 1 1 1
121 2  2.052532717094450e+00 -9.190692156547744e-01  1.929319954029238e+00 1 1 1
122 1  2.356594997707935e+00 -6.477766969666477e-01  2.316360871655542e+00 1 1 1
123 4  2.466729279173514e+00 -3.283869452923221e-01  2.756351256163418e+00 1 1 1
124 2  2.337032414330026e+00 -2.251455122897641e-01  3.310982316086059e+00 1 1 1
125 1  2.196972238061696e+00 -3.517984324511678e-01  3.845442144925591e+00 1 1 1
126 4  1.833664005635125e+00 -5.698168584174690e-01  4.342046254989434e+00 1 1 1
127 1  1.870246760361811e+00 -9.919386397432887e-01  4.674034817026128e+00 1 1 1
128 3  2.076058186941024e+00 -1.381150077909880e+00  4.976328203376807e+00 1 1 1
129 1  2.478348371515781e+00 -1.553869117499078e+00  5.261122105569158e+00 1 1 1
130 2  2.941158660916202e+00 -1.375570000370732e+00  5.588487537227667e+00 1 1 1
131 3  3.122841469401695e+00 -1.135669918247988e+00  6.012796431087110e+00 1 1 1
132 4  3.234896689363700e+00 -7.539093683963374e-01  6.476038976285512e+00 1 1 1
133 2  2.992708938347278e+00 -4.243953979807467e-01  6.919273118226418e+00 1 1 1
134 2  2.629434880933256e+00 -6.911061405568393e-02  7.259345534533680e+00 1 1 1
135 1  2.218735674593857e+00 -1.219658090989389e-01  7.555786625521304e+00 1 1 1
136 2  1.707134118461215e+00 -3.048343446077038e-01  7.806570605899579e+00 1 1 1
137 2  1.429604181856378e+00 -6.770801151740584e-01  8.130985776250910e+00 1 1 1
138 4  1.360524771073022e+00 -1.164880253580653e+00  8.433159192298662e+00 1 1 1
139 1  1.463517033956104e+00 -1.508972595847449e+00  8.819703932289046e+00 1 1 1
140 4  1.702576895984973e+00 -1.711293730922752e+00  9.336000234796900e+00 1 1 1
141 1  1.748258589653283e+00 -1.600247095785954e+00  9.857103724326075e+00 1 1 1
142 1  1.703233488746520e+00 -1.234802491083308e+00  1.029721374344525e+01 1 1 1
143 2  1.515416270189444e+00 -8.775595951607126e-01  1.071764436919959e+01 1 1 1
144 4  1.064492838694529e+00 -5.476813806057761e-01  1.088308288330594e+01 1 1 1
145 1  5.232253267590201e-01 -5.241579922256139e-01  1.097524849338655e+01 1 1 1
146 4  7.862526414651326e-01 -1.722100258276591e+00  1.109840338107537e+01 2 1 1
147 1  7.598363130178110e-01 -1.791371772940216e+00  1.060154965954449e+01 2 1 1
148 3  6.367745309398279e-01 -1.604911524258789e+00  1.005696492988111e+01 2 1 1
149 4  6.404144165297019e-01 -1.278058229631369e+00  9.570603428034751e+00 2 1 1
150 4  8.350493073491432e-01 -8.458147452453628e-01  9.271671753932848e+00 2 1 1
151 1  1.245547244490659e+00 -5.002795201198583e-01  9.159237021880836e+00 2 1 1
152 4  1.776919464663067e+00 -2.239786334820379e-01  8.998767316271424e+00 2 1 1
153 1  2.315153344737754e+00 -3.023121904314672e-01  8.782147608984893e+00 2 1 1
154 3  2.688381822450853e+00 -6.253815449636065e-01  8.462010928728466e+00 2 1 1
155 3  2.854212469849943e+00 -9.740229247155755e-01  8.097750218788022e+00 2 1 1
156 4  2.820820615167879e+00 -1.300446114111293e+00  7.630652735383893e+00 2 1 1
157 3  2.601437597387351e+00 -1.420019637558966e+00  7.168114580887531e+00 2 1 1
158 3  2.222795577280198e+00 -1.439609169886230e+00  6.737731861939422e+00 2 1 1
159 1  1.968660204161495e+00 -1.151287469672067e+00  6.370140542716262e+00 2 1 1
160 2  1.909627908701079e+00 -6.480085515502774e-01  6.028620506419840e+00 2 1 1
161 3  2.111768661017311e+00 -4.156278682575935e-01  5.617745309398279e+00 2 1 1
162 4  2.500727870392111e+00 -2.938659309697111e-01  5.156081239727635e+00 2 1 1
163 2  2.840171278160181e+00 -3.436438007439354e-01  4.650362699422894e+00 2 1 1
164 4  3.138166236205682e+00 -5.985970885184315e-01  4.182742427799954e+00 2 1 1
165 1  3.055177271660014e+00 -9.146569170048859e-01  3.738794038394883e+00 2 1 1
166 4  2.938764968302419e+00 -1.355811223291852e+00  3.316247945527119e+00 2 1 1
167 3  2.538175841533437e+00 -1.497614676940810e+00  3.032236547204850e+00 2 1 1
168 1  2.007116582251590e+00 -1.572306264604926e+00  2.914729592236049e+00 2 1 1
169 4  1.465437896219770e+00 -1.459098379901385e+00  2.950410894576191e+00 2 1 1
170 3  1.040774616320519e+00 -1.131326175585391e+00  2.822498879378429e+00 2 1 1
171 3  8.020341949668081e-01 -6.746675489338085e-01  2.624287604858161e+00 2 1 1
172 4  7.786745714956562e-01 -3.035630429678328e-01  2.165302888001878e+00 2 1 1
173 4  6.922282225874618e-01 -9.451162244658373e-02  1.630464897863349e+00 2 1 1
174 4  5.785982625029350e-01 -1.313336463958676e-01  1.043173280112702e+00 2 1 1
175 4  3.021660014087814e-01 -3.614639586757454e-01  6.162890349847383e-01 2 1 1
176 2 -1.337724447300454e-02 -7.495829265580010e-01  2.421930030523597e-01 2 1 1
177 1 -5.814186205123043e-01 -9.479757152919864e-01  3.408859669719026e-01 2 1 1
178 2 -1.133556184426787e+00 -1.165754254149108e+00  5.063456951841920e-01 2 1 1
179 1 -1.567487337738571e+00 -1.106536298482765e+00  7.875143952861728e-01 2 1 1
180 4 -1.891030758393990e+00 -9.231157548720355e-01  1.240097440713783e+00 2 1 1
181 1 -2.191415378078914e+00 -4.758885944610292e-01  1.390802669976185e+00 2 1 1
182 1 -2.483944364315342e+00 -1.350082178915238e-02  1.350641219154955e+00 2 1 1
183 1 -2.884161271928353e+00  2.837408736680866e-01  1.124302597300954e+00 2 1 1
184 2 -3.391462043227345e+00  2.033155793922467e-01  7.933849062666055e-01 2 1 1
185 2 -3.950321918908565e+00 -3.909986282917908e-02  7.075233870070810e-01 2 1 1
186 4 -4.401244423573608e+00 -3.768607654378963e-01  8.822258746184549e-01 2 1 1
187 4 -4.776714017374970e+00 -7.640291148156845e-01  1.103287156609533e+00 2 1 1
188 4 -4.976226813806058e+00 -1.034086640056351e+00  1.575651561399390e+00 2 1 1
189 3 -5.064136907938271e+00 -1.117035582403040e+00  2.100727870392111e+00 2 1 1
190 1 -5.052650409776494e+00 -9.871867977056987e-01  2.674258433122016e+00 2 1 1
191 2 -5.142311637275863e+00 -6.790449945008094e-01  3.109044623768861e+00 2 1 1
192 3 -5.526937608059937e+00 -2.871406006531623e-01  3.261489039253773e+00 2 1 1
193 1 -5.975066805308646e+00 -9.234785719876117e-02  3.433720189179217e+00 2 1 1
194 3 -6.551441866421908e+00 -1.815940575038954e-01  3.511771862793228e+00 2 1 1
195 3 -7.030134047685115e+00 -3.778629213003479e-01  3.737598454609490e+00 2 1 1
196 4 -7.327007513500820e+00 -8.428680441418174e-01  4.053926978163887e+00 2 1 1
197 1 -7.376055188452464e+00 -1.220826485090397e+00  4.449261507843334e+00 2 1 1
198 3 -7.161497577322888e+00 -1.563960810262759e+00  4.887937842856838e+00 2 1 1
199 4 -6.893601784456446e+00 -1.712673162714252e+00  5.355065743132190e+00 2 1 1
200 4 -6.583570086874854e+00 -1.550909837990138e+00  5.787637943179150e+00 2 1 1
201 4 -6.446607184785160e+00 -1.166699929560930e+00  6.211264381310166e+00 2 1 1
202 4 -6.627453627612114e+00 -8.410072787039211e-01  6.650639821554356e+00 2 1 1
203 2 -7.000895935542073e+00 -7.693676548732714e-01  7.109180558816622e+00 2 1 1
204 2 -7.291481815597928e+00 -9.918130028052051e-01  7.519142126271302e+00 2 1 1
205 3 -7.391470468953447e+00 -1.527770069798715e+00  7.782567397383082e+00 2 1 1
206 4 -7.176350082178915e+00 -1.995662127259920e+00  8.077576895984972e+00 2 1 1
207 1 -6.800931361039368e+00 -2.281275506210937e+00  8.443905902346849e+00 2 1 1
208 2 -6.246388452935579e+00 -2.583680379629515e+00  8.640686595568514e+00 2 1 1
209 1 -5.716013148626437e+00 -2.621334093628059e+00  8.688994733840939e+00 2 1 1
210 1 -5.202825389371526e+00 -2.468486901687184e+00  8.716823756974025e+00 2 1 1
211 3 -4.781526820209609e+00 -2.096933765928835e+00  8.946519669576727e+00 2 1 1
212 4 -4.478563042967834e+00 -1.875745480159661e+00  9.382853956327777e+00 2 1 1
213 2 -4.289381001223415e+00 -1.819496793168646e+00  9.918772630096019e+00 2 1 1
214 3 -4.154149501590216e+00 -2.163941599607249e+00  1.034212576575807e+01 2 1 1
215 1 -3.899244177595904e+00 -2.545891613278324e+00  1.060919733002381e+01 2 1 1
216 2 -3.574356471126160e+00 -3.046718404369694e+00  1.069526451724521e+01 2 1 1
217 4 -3.186986381779761e+00 -3.473062925569382e+00  1.057371448696877e+01 2 1 1
218 4 -2.802688424512796e+00 -3.722734209908429e+00  1.028609415355717e+01 2 1 1
219 1 -2.423763682509867e+00 -3.757337403146279e+00  9.907165777792684e+00 2 1 1
220 3 -2.014359964993917e+00 -3.557776046447096e+00  9.578704988366880e+00 2 1 1
221 4 -1.579273303592392e+00 -3.226461610706738e+00  9.429279173514910e+00 2 1 1
222 2 -1.101092423474747e+00 -2.922671494420483e+00  9.620370484793813e+00 2 1 1
223 3 -6.480234369997224e-01 -2.954929667655660e+00  9.967363230805349e+00 2 1 1
224 1 -1.852435738324445e-01 -3.125146748062925e+00  1.011149498540905e+01 2 1 1
225 2  2.164394903671482e-01 -3.593226727301936e+00  1.021234290233685e+01 2 1 1
226 4  6.195761915942709e-01 -3.946466306644752e+00  9.972710730218362e+00 2 1 1
227 4  8.455153791969945e-01 -4.310988494951866e+00  9.599184080770133e+00 2 1 1
228 3  9.616480607910521e-01 -4.436738244146087e+00  9.099708638391427e+00 2 1 1
229 4  1.015690302888002e+00 -4.459309697111998e+00  8.480541206856067e+00 2 1 1
230 1  1.136048032737396e+00 -4.204664631760194e+00  8.043526873064321e+00 2 1 1
231 2  1.261594641687572e+00 -3.759024233511696e+00  7.665544172711656e+00 2 1 1
232 3  1.677228969668509e+00 -3.394245341416039e+00  7.523063459198702e+00 2 1 1
233 3  2.213494418237315e+00 -3.292572947128007e+00  7.223115754872037e+00 2 1 1
234 1  2.668226388935476e+00 -3.369603864086137e+00  6.823063764129742e+00 2 1 1
235 1  2.973333780565524e+00 -3.694685763481255e+00  6.457730967475039e+00 2 1 1
236 1  3.037595456120932e+00 -4.101493755520522e+00  6.065072283902994e+00 2 1 1
237 1  2.860290253692461e+00 -4.375423472981585e+00  5.629054439338543e+00 2 1 1
238 2  2.368915361896170e+00 -4.609520396436031e+00  5.248093819898418e+00 2 1 1
239 4  1.917826954684198e+00 -4.516177506456914e+00  4.903375205447287e+00 2 1 1
240 1  1.608163105580339e+00 -4.246039199901610e+00  4.591749684142265e+00 2 1 1
241 2  1.458286476934294e+00 -3.777721481444866e+00  4.273631072280372e+00 2 1 1
242 2  1.633395533915794e+00 -3.339707863224626e+00  3.890220091200059e+00 2 1 1
243 4  1.812767081474524e+00 -3.252970180793613e+00  3.386998121624794e+00 2 1 1
244 2  2.002656912297178e+00 -3.424957674769220e+00  2.790554985726820e+00 2 1 1
245 3  1.862617131635680e+00 -3.639090482187453e+00  2.348310529573737e+00 2 1 1
246 4  1.633135712608594e+00 -4.129795726696407e+00  1.951444000939187e+00 2 1 1
247 2  1.231485028608148e+00 -4.392147897331966e+00  1.645716192335735e+00 2 1 1
248 1  6.895314124710696e-01 -4.481752926575655e+00  1.563976565033151e+00 2 1 1
249 1  1.916166325652121e-01 -4.436901128143203e+00  1.642035353704760e+00 2 1 1
250 1 -2.804984402777312e-01 -4.148397231632732e+00  1.738749315175706e+00 2 1 1
251 3 -5.798896454566801e-01 -3.630253580652734e+00  1.608977779675127e+00 2 1 1
252 3 -8.314745245362757e-01 -3.296884672031420e+00  1.284040214305535e+00 2 1 1
253 4 -1.021442826954684e+00 -3.059667762385536e+00  7.683963371683494e-01 2 1 1
254 4 -1.331644752289270e+00 -2.988536041324255e+00  2.921225639821554e-01 2 1 1
255 4 -1.706280817093214e+00 -3.185066917116694e+00 -1.236264381310167e-01 2 1 1
256 1 -2.144388913113966e+00 -3.413248135600799e+00 -3.200561276400675e-01 2 1 1
257 4 -2.574888471472176e+00 -3.816864287391406e+00 -3.185254754637238e-01 2 1 1
258 3 -3.085289974172341e+00 -3.989524856453713e+00 -3.466989690281543e-02 2 1 1
259 4 -3.431597792909133e+00 -4.114645456679972e+00  4.742427799953040e-01 2 1 1
260 3 -3.675697453520886e+00 -3.879068923562936e+00  8.923242758650130e-01 2 1 1
261 1 -3.914640145797694e+00 -3.535336933552477e+00  1.257259137512718e+00 2 1 1
262 1 -4.190649492950502e+00 -3.062780218920158e+00  1.333193573273404e+00 2 1 1
263 1 -4.609191739621417e+00 -2.762122787598252e+00  1.205095092744776e+00 2 1 1
264 1 -5.086136920135511e+00 -2.624537394201635e+00  1.064149867507463e+00 2 1 1
265 2 -5.636713584854364e+00 -2.831181028410425e+00  9.805489304383288e-01 2 1 1
266 2 -6.027570099232585e+00 -3.160687584187047e+00  1.101728846652908e+00 2 1 1
267 1 -6.385983743109830e+00 -3.536555641275058e+00  1.274874495466183e+00 2 1 1
268 4 -6.514393050011739e+00 -3.973943413946935e+00  1.659268607654379e+00 2 1 1
269 2 -6.494439020773347e+00 -4.188597521039038e+00  2.200084032574980e+00 2 1 1
270 1 -6.392736949205601e+00 -4.271056250628920e+00  2.790337548496740e+00 2 1 1
271 4 -6.230036393519605e+00 -4.101344212256399e+00  3.330476637708381e+00 2 1 1
272 1 -6.307902592828631e+00 -3.797565938796274e+00  3.780040027281163e+00 2 1 1
273 3 -6.583545006296825e+00 -3.477192682874769e+00  4.125701722555443e+00 2 1 1
274 1 -7.025302161249567e+00 -3.350339337425507e+00  4.362861838795156e+00 2 1 1
275 2 -7.504838051927189e+00 -3.581579565255002e+00  4.519302776782292e+00 2 1 1
276 3 -7.760400435441524e+00 -3.972208585028495e+00  4.826938675318576e+00 2 1 1
277 4 -7.834016200986148e+00 -4.496577835172576e+00  5.166289034984737e+00 2 1 1
278 2 -7.790487018202938e+00 -4.896417493604872e+00  5.568511264072367e+00 2 1 1
279 2 -7.482519988630887e+00 -5.304500685854104e+00  5.912297178729871e+00 2 1 1
280 1 -7.118382361162355e+00 -5.367255895079328e+00  6.303855141493085e+00 2 1 1
281 2 -6.660891486758690e+00 -5.199490861457470e+00  6.672606616329506e+00 2 1 1
282 2 -6.423307917598645e+00 -4.880068214678514e+00  7.087486560966869e+00 2 1 1
283 4 -6.418748532519372e+00 -4.439293261328950e+00  7.485718478516083e+00 2 1 1
284 1 -6.611148380460428e+00 -4.188575453661156e+00  7.903671776294458e+00 2 1 1
285 4 -6.948726226813806e+00 -4.084033810753698e+00  8.392680206621272e+00 2 1 1
286 1 -7.061444112747235e+00 -4.272806046579231e+00  8.866892518923512e+00 2 1 1
287 1 -7.103042296984536e+00 -4.681302340142443e+00  9.255011795749059e+00 2 1 1
288 2 -6.953843872418779e+00 -5.097780551401985e+00  9.633963989570075e+00 2 1 1
289 4 -6.611029584409485e+00 -5.450633951631837e+00  9.855535336933553e+00 2 1 1
290 1 -6.071169549450834e+00 -5.525677649943908e+00  1.004349612585114e+01 2 1 1

# Atom-ID, translational, rotational velocity
Velocities

1  0.000000000000000e+00  0.000000000000000e+00  0.000000000000000e+00  0.000000000000000e+00  0.000000000000000e+00  0.000000000000000e+00
2  0.000000000000000e+00  0.000000000000000e+00  0.000000000000000e+00  0.000000000000000e+00  0.000000000000000e+00  0.000000000000000e+00
3  0.000000000000000e+00  0.000000000000000e+00  0.000000000000000e+00  0.000000000000000e+00  0.000000000000000e+00  0.000000000000000e+00
4  0.000000000000000e+00  0.000000000000000e+00  0.000000000000000e+00  0.000000000000000e+00  0.000000000000000e+00  0.000000000000000e+00
5  0.000000000000000e+00  0.000000000000000e+00  0.000000000000000e+00  0.000000000000000e+00  0.000000000000000e+00  0.000000000000000e+00
6  0.000000000000000e+00  0.000000000000000e+00  0.000000000000000e+00  0.000000000000000e+00  0.000000000000000e+00  0.000000000000000e+00
7  0.000000000000000e+00  0.000000000000000e+00  0.000000000000000e+00  0.000000000000000e+00  0.000000000000000e+00  0.000000000000000e+00
8  0.000000000000000e+00  0.000000000000000e+00  0.000000000000000e+00  0.000000000000000e+00  0.000000000000000e+00  0.000000000000000e+00
9  0.000000000000000e+00  0.000000000000000e+00  0.000000000000000e+00  0.000000000000000e+00  0.000000000000000e+00  0.000000000000000e+00
10  0.000000000000000e+00  0.000000000000000e+00  0.000000000000000e+00  0.000000000000000e+00  0.000000000000000e+00  0.000000000000000e+00
11  0.000000000000000e+00  0.000000000000000e+00  0.000000000000000e+00  0.000000000000000e+00  0.000000000000000e+00  0.000000000000000e+00
12  0.000000000000000e+00  0.000000000000000e+00  0.000000000000000e+00  0.000000000000000e+00  0.000000000000000e+00  0.000000000000000e+00
13  0.000000000000000e+00  0.000000000000000e+00  0.000000000000000e+00  0.000000000000000e+00  0.000000000000000e+00  0.000000000000000e+00
14  0.000000000000000e+00  0.000000000000000e+00  0.000000000000000e+00  0.000000000000000e+00  0.000000000000000e+00  0.000000000000000e+00
15  0.000000000000000e+00  0.000000000000000e+00  0.000000000000000e+00  0.000000000000000e+00  0.000000000000000e+00  0.000000000000000e+00
16  0.000000000000000e+00  0.000000000000000e+00  0.000000000000000e+00  0.000000000000000e+00  0.000000000000000e+00  0.000000000000000e+00
17  0.000000000000000e+00  0.000000000000000e+00  0.000000000000000e+00  0.000000000000000e+00  0.000000000000000e+00  0.000000000000000e+00
18  0.000000000000000e+00  0.000000000000000e+00  0.000000000000000e+00  0.000000000000000e+00  0.000000000000000e+00  0.000000000000000e+00
19  0.000000000000000e+00  0.000000000000000e+00  0.000000000000000e+00  0.000000000000000e+00  0.000000000000000e+00  0.000000000000000e+00
20  0.000000000000000e+00  0.000000000000000e+00  0.000000000000000e+00  0.000000000000000e+00  0.000000000000000e+00  0.000000000000000e+00
21  0.000000000000000e+00  0.000000000000000e+00  0.000000000000000e+00  0.000000000000000e+00  0.000000000000000e+00  0.000000000000000e+00
22  0.000000000000000e+00  0.000000000000000e+00  0.000000000000000e+00  0.000000000000000e+00  0.000000000000000e+00  0.000000000000000e+00
23  0.000000000000000e+00  0.000000000000000e+00  0.000000000000000e+00  0.000000000000000e+00  0.000000000000000e+00  0.000000000000000e+00
24  0.000000000000000e+00  0.000000000000000e+00  0.000000000000000e+00  0.000000000000000e+00  0.000000000000000e+00  0.000000000000000e+00
25  0.000000000000000e+00  0.000000000000000e+00  0.000000000000000e+00  0.000000000000000e+00  0.000000000000000e+00  0.000000000000000e+00
26  0.000000000000000e+00  0.000000000000000e+00  0.000000000000000e+00  0.000000000000000e+00  0.000000000000000e+00  0.000000000000000e+00
27  0.000000000000000e+00  0.000000000000000e+00  0.000000000000000e+00  0.000000000000000e+00  0.000000000000000e+00  0.000000000000000e+00
28  0.000000000000000e+00  0.000000000000000e+00  0.000000000000000e+00  0.000000000000000e+00  0.000000000000000e+00  0.000000000000000e+00
29  0.000000000000000e+00  0.000000000000000e+00  0.000000000000000e+00  0.000000000000000e+00  0.000000000000000e+00  0.000000000000000e+00
30  0.000000000000000e+00  0.000000000000000e+00  0.000000000000000e+00  0.000000000000000e+00  0.000000000000000e+00  0.000000000000000e+00
31  0.000000000000000e+00  0.000000000000000e+00  0.000000000000000e+00  0.000000000000000e+00  0.000000000000000e+00  0.000000000000000e+00
32  0.000000000000000e+00  0.000000000000000e+00  0.000000000000000e+00  0.000000000000000e+00  0.000000000000000e+00  0.000000000000000e+00
33  0.000000000000000e+00  0.000000000000000e+00  0.000000000000000e+00  0.000000000000000e+00  0.000000000000000e+00  0.000000000000000e+00
34  0.000000000000000e+00  0.000000000000000e+00  0.000000000000000e+00  0.000000000000000e+00  0.000000000000000e+00  0.000000000000000e+00
35  0.000000000000000e+00  0.000000000000000e+00  0.000000000000000e+00  0.000000000000000e+00  0.000000000000000e+00  0.000000000000000e+00
36  0.000000000000000e+00  0.000000000000000e+00  0.000000000000000e+00  0.000000000000000e+00  0.000000000000000e+00  0.000000000000000e+00
37  0.000000000000000e+00  0.000000000000000e+00  0.000000000000000e+00  0.000000000000000e+00  0.000000000000000e+00  0.000000000000000e+00
38  0.000000000000000e+00  0.000000000000000e+00  0.000000000000000e+00  0.000000000000000e+00  0.000000000000000e+00  0.000000000000000e+00
39  0.000000000000000e+00  0.000000000000000e+00  0.000000000000000e+00  0.000000000000000e+00  0.000000000000000e+00  0.000000000000000e+00
40  0.000000000000000e+00  0.000000000000000e+00  0.000000000000000e+00  0.000000000000000e+00  0.000000000000000e+00  0.000000000000000e+00
41  0.000000000000000e+00  0.000000000000000e+00  0.000000000000000e+00  0.000000000000000e+00  0.000000000000000e+00  0.000000000000000e+00
42  0.000000000000000e+00  0.000000000000000e+00  0.000000000000000e+00  0.000000000000000e+00  0.000000000000000e+00  0.000000000000000e+00
43  0.000000000000000e+00  0.000000000000000e+00  0.000000000000000e+00  0.000000000000000e+00  0.000000000000000e+00  0.000000000000000e+00
44  0.000000000000000e+00  0.000000000000000e+00  0.000000000000000e+00  0.000000000000000e+00  0.000000000000000e+00  0.000000000000000e+00