# LAMMPS data file
32 atoms
32 ellipsoids
31 bonds

4 atom types
1 bond types

# System size
-800.000000 800.000000 xlo xhi
-800.000000 800.000000 ylo yhi
-800.000000 800.000000 zlo zhi

Masses

1 3.1575
2 3.1575
3 3.1575
4 3.1575

# Atom-ID, type, position, molecule-ID, ellipsoid flag, density
Atoms

1 4 -1.843553310257595e+00  1.433151050148074e+00  2.097286580978422e+01 1 1 1
2 4 -2.057857869609454e+00  1.903537606636926e+00  2.060935665649213e+01 1 1 1
3 4 -2.013986068717226e+00  2.335109963215152e+00  2.024504578539563e+01 1 1 1
4 4 -1.592451279643109e+00  2.714514361743758e+00  1.995829615715739e+01 1 1 1
5 4 -1.141989512405103e+00  2.857615246145417e+00  1.965108397902481e+01 1 1 1
6 4 -6.400563512561634e-01  2.711849416921030e+00  1.934302261876810e+01 1 1 1
7 4 -3.001369648587305e-01  2.327138608437036e+00  1.898922673554042e+01 1 1 1
8 4 -1.993699616498396e-01  1.913512561634186e+00  1.860940361587227e+01 1 1 1
9 4 -4.584370352978008e-01  1.438221022149174e+00  1.829387962745559e+01 1 1 1
10 4 -8.883345073178370e-01  1.173714486968772e+00  1.799584018157627e+01 1 1 1
11 4 -1.413140799874775e+00  1.210068873757533e+00  1.770176097675511e+01 1 1 1
12 4 -1.848066838851060e+00  1.468263285591297e+00  1.739343742662597e+01 1 1 1
13 4 -2.064005635125616e+00  1.924348438600610e+00  1.703933630742741e+01 1 1 1
14 4 -2.040705956014713e+00  2.354191124677154e+00  1.666174375831572e+01 1 1 1
15 4 -1.659877122955310e+00  2.712448149017765e+00  1.634264303044533e+01 1 1 1
16 4 -1.144302261876810e+00  2.836401346168897e+00  1.607268529388745e+01 1 1 1
17 1 -7.202928557706677e-01  2.684376045024085e+00  1.574255942851858e+01 1 1 1
18 1 -3.776352394572634e-01  2.363760877144301e+00  1.538850348993575e+01 1 1 1
19 1 -2.468853835371796e-01  1.970607697069308e+00  1.500411961834831e+01 1 1 1
20 3 -3.477687388644117e-01  1.574299407483115e+00  1.465803212574065e+01 1 1 1
21 3 -7.549410936010937e-01  1.225180586439788e+00  1.437156954822314e+01 1 1 1
22 3 -1.279674184771349e+00  1.148764553954946e+00  1.408714763200420e+01 1 1 1
23 1 -1.768568521562182e+00  1.448604381452467e+00  1.379100941322120e+01 1 1 1
24 1 -1.990120742527411e+00  1.860391897372409e+00  1.343231445708553e+01 1 1 1
25 1 -2.011145737724747e+00  2.289561499000334e+00  1.306017204209268e+01 1 1 1
26 3 -1.796993909092165e+00  2.636568926701932e+00  1.270220156623344e+01 1 1 1
27 1 -1.215753449024170e+00  2.783133044461995e+00  1.244981038371505e+01 1 1 1
28 1 -7.259030786854218e-01  2.700829615715739e+00  1.214673383281037e+01 1 1 1
29 3 -3.949461745892834e-01  2.458999480600795e+00  1.178944232178559e+01 1 1 1
30 1 -2.207393256348410e-01  1.961687193607832e+00  1.142631468476737e+01 1 1 1
31 3 -3.174782122287750e-01  1.553228112094803e+00  1.107682865350883e+01 1 1 1
32 1 -7.127941588590384e-01  1.200287436850995e+00  1.074530595550977e+01 1 1 1

# Atom-ID, translational, rotational velocity
Velocities

1  0.000000000000000e+00  0.000000000000000e+00  0.000000000000000e+00  0.000000000000000e+00  0.000000000000000e+00  0.000000000000000e+00
2  0.000000000000000e+00  0.000000000000000e+00  0.000000000000000e+00  0.000000000000000e+00  0.000000000000000e+00  0.000000000000000e+00
3  0.000000000000000e+00  0.000000000000000e+00  0.000000000000000e+00  0.000000000000000e+00  0.000000000000000e+00  0.000000000000000e+00
4  0.000000000000000e+00  0.000000000000000e+00  0.000000000000000e+00  0.000000000000000e+00  0.000000000000000e+00  0.000000000000000e+00
5  0.000000000000000e+00  0.000000000000000e+00  0.000000000000000e+00  0.000000000000000e+00  0.000000000000000e+00  0.000000000000000e+00
6  0.000000000000000e+00  0.000000000000000e+00  0.000000000000000e+00  0.000000000000000e+00  0.000000000000000e+00  0.000000000000000e+00
7  0.000000000000000e+00  0.000000000000000e+00  0.000000000000000e+00  0.000000000000000e+00  0.000000000000000e+00  0.000000000000000e+00
8  0.000000000000000e+00  0.000000000000000e+00  0.000000000000000e+00  0.000000000000000e+00  0.000000000000000e+00  0.000000000000000e+00
9  0.000000000000000e+00  0.000000000000000e+00  0.000000000000000e+00  0.000000000000000e+00  0.000000000000000e+00  0.000000000000000e+00
10  0.000000000000000e+00  0.000000000000000e+00  0.000000000000000e+00  0.000000000000000e+00  0.000000000000000e+00  0.000000000000000e+00
11  0.000000000000000e+00  0.000000000000000e+00  0.000000000000000e+00  0.000000000000000e+00  0.000000000000000e+00  0.000000000000000e+00
12  0.000000000000000e+00  0.000000000000000e+00  0.000000000000000e+00  0.000000000000000e+00  0.000000000000000e+00  0.000000000000000e+00
13  0.000000000000000e+00  0.000000000000000e+00  0.000000000000000e+00  0.000000000000000e+00  0.000000000000000e+00  0.000000000000000e+00
14  0.000000000000000e+00  0.000000000000000e+00  0.000000000000000e+00  0.000000000000000e+00  0.000000000000000e+00  0.000000000000000e+00
15  0.000000000000000e+00  0.000000000000000e+00  0.000000000000000e+00  0.000000000000000e+00  0.000000000000000e+00  0.000000000000000e+00
16  0.000000000000000e+00  0.000000000000000e+00  0.000000000000000e+00  0.000000000000000e+00  0.000000000000000e+00  0.000000000000000e+00
17  0.000000000000000e+00  0.000000000000000e+00  0.000000000000000e+00  0.000000000000000e+00  0.000000000000000e+00  0.000000000000000e+00
18  0.000000000000000e+00  0.000000000000000e+00  0.000000000000000e+00  0.000000000000000e+00  0.000000000000000e+00  0.000000000000000e+00
19  0.000000000000000e+00  0.000000000000000e+00  0.000000000000000e+00  0.000000000000000e+00  0.000000000000000e+00  0.000000000000000e+00
20  0.000000000000000e+00  0.000000000000000e+00  0.000000000000000e+00  0.000000000000000e+00  0.000000000000000e+00  0.000000000000000e+00
21  0.000000000000000e+00  0.000000000000000e+00  0.000000000000000e+00  0.000000000000000e+00  0.000000000000000e+00  0.000000000000000e+00
22  0.000000000000000e+00  0.000000000000000e+00  0.000000000000000e+00  0.000000000000000e+00  0.000000000000000e+00  0.000000000000000e+00
23  0.000000000000000e+00  0.000000000000000e+00  0.000000000000000e+00  0.000000000000000e+00  0.000000000000000e+00  0.000000000000000e+00
24  0.000000000000000e+00  0.000000000000000e+00  0.000000000000000e+00  0.000000000000000e+00  0.000000000000000e+00  0.000000000000000e+00
25  0.000000000000000e+00  0.000000000000000e+00  0.000000000000000e+00  0.000000000000000e+00  0.000000000000000e+00  0.000000000000000e+00
26  0.000000000000000e+00  0.000000000000000e+00  0.000000000000000e+00  0.000000000000000e+00  0.000000000000000e+00  0.000000000000000e+00
27  0.000000000000000e+00  0.000000000000000e+00  0.000000000000000e+00  0.000000000000000e+00  0.000000000000000e+00  0.000000000000000e+00
28  0.000000000000000e+00  0.000000000000000e+00  0.000000000000000e+00  0.000000000000000e+00  0.000000000000000e+00  0.000000000000000e+00
29  0.000000000000000e+00  0.000000000000000e+00  0.000000000000000e+00  0.000000000000000e+00  0.000000000000000e+00  0.000000000000000e+00
30  0.000000000000000e+00  0.000000000000000e+00  0.000000000000000e+00  0.000000000000000e+00  0.000000000000000e+00  0.000000000000000e+00
31  0.000000000000000e+00  0.000000000000000e+00  0.000000000000000e+00  0.000000000000000e+00  0.000000000000000e+00  0.000000000000000e+00
32  0.000000000000000e+00  0.000000000000000e+00  0.000000000000000e+00  0.000000000000000e+00  0.000000000000000e+00  0.000000000000000e+00

# Atom-ID, shape, quaternion
Ellipsoids

1  1.173984503142341e+00  1.173984503142341e+00  1.173984503142341e+00 -1.523009691784934e-02  9.778144466778710e-01 -1.152948313660856e-01 -1.742241483726867e-01
2  1.173984503142341e+00  1.173984503142341e+00  1.173984503142341e+00 -8.016308796530763e-02  9.409286384953393e-01 -3.100614410401294e-01 -1.099503495551141e-01
3  1.173984503142341e+00  1.173984503142341e+00  1.173984503142341e+00 -1.102680013637269e-01  7.833856148263842e-01 -6.066516329287792e-01 -7.824156582778000e-02
4  1.173984503142341e+00  1.173984503142341e+00  1.173984503142341e+00 -1.826731105688439e-01  6.275046091052053e-01 -7.563432037037888e-01 -2.852119278563173e-02
5  1.173984503142341e+00  1.173984503142341e+00  1.173984503142341e+00  1.449593305925061e-01 -3.275590300839402e-01  9.331637161912549e-01  2.995585199535833e-02
6  1.173984503142341e+00  1.173984503142341e+00  1.173984503142341e+00  1.626477412265346e-01 -6.518945175713549e-02  9.845010718955940e-01  7.327147462481484e-03
7  1.173984503142341e+00  1.173984503142341e+00  1.173984503142341e+00  1.204567789161445e-01  1.663538980171619e-01  9.777789557315177e-01 -4.201022204446993e-02
8  1.173984503142341e+00  1.173984503142341e+00  1.173984503142341e+00  7.678476771562752e-02  4.777016654451920e-01  8.729711176871801e-01 -6.185988976503946e-02
9  1.173984503142341e+00  1.173984503142341e+00  1.173984503142341e+00  5.721535888597129e-02  6.822626734615103e-01  7.104286422965191e-01 -1.628962593598351e-01
10  1.173984503142341e+00  1.173984503142341e+00  1.173984503142341e+00  4.233385038196644e-02  8.603311007104409e-01  4.773179226458558e-01 -1.737982824519362e-01
11  1.173984503142341e+00  1.173984503142341e+00  1.173984503142341e+00 -7.546439020857600e-03  9.506791981323589e-01  2.491717296297014e-01 -1.845685852193238e-01
12  1.173984503142341e+00  1.173984503142341e+00  1.173984503142341e+00 -2.553387805128619e-02  9.847118421595114e-01 -4.370802545735705e-02 -1.666739856519379e-01
13  1.173984503142341e+00  1.173984503142341e+00  1.173984503142341e+00 -6.279261369684427e-02  9.433256548927270e-01 -3.067035047560081e-01 -1.101215540060521e-01
14  1.173984503142341e+00  1.173984503142341e+00  1.173984503142341e+00 -9.042691841386663e-02  7.945825229548195e-01 -5.973423671611087e-01 -6.036292765670825e-02
15  1.173984503142341e+00  1.173984503142341e+00  1.173984503142341e+00 -1.661752565175923e-01  6.010388065738573e-01 -7.814882726777985e-01 -2.035231634622149e-02
16  1.173984503142341e+00  1.173984503142341e+00  1.173984503142341e+00  1.812924448427786e-01 -3.368302155957401e-01  9.239472099941075e-01 -9.191713562277008e-05
17  1.173984503142341e+00  1.173984503142341e+00  1.173984503142341e+00  1.440852756379399e-01 -2.392684842902064e-01  9.595434186654326e-01 -3.558726549849659e-02
18  1.173984503142341e+00  1.173984503142341e+00  1.173984503142341e+00  1.073793521822491e-01  3.340530062523116e-02  9.926333131627654e-01 -4.508731766882847e-02
19  1.173984503142341e+00  1.173984503142341e+00  1.173984503142341e+00  6.026688062644446e-02  3.108881351981628e-01  9.458173815556403e-01 -7.173528587660938e-02
20  1.173984503142341e+00  1.173984503142341e+00  1.173984503142341e+00  2.312609681737041e-02  6.351594420175648e-01  7.674554832283895e-01 -8.396277820920593e-02
21  1.173984503142341e+00  1.173984503142341e+00  1.173984503142341e+00 -2.942508687920907e-03  8.410122873143019e-01  5.284480021013250e-01 -1.158981591920492e-01
22  1.173984503142341e+00  1.173984503142341e+00  1.173984503142341e+00 -1.269172488988027e-02  9.506015700881844e-01  2.856927768869701e-01 -1.207278439292695e-01
23  1.173984503142341e+00  1.173984503142341e+00  1.173984503142341e+00 -6.356581504217024e-02  9.864243261995320e-01  9.517761399196638e-02 -1.177610191643227e-01
24  1.173984503142341e+00  1.173984503142341e+00  1.173984503142341e+00 -5.637348744608420e-02  9.784859741258582e-01 -1.813100663090147e-01 -8.070866252861128e-02
25  1.173984503142341e+00  1.173984503142341e+00  1.173984503142341e+00 -8.730450735903524e-02  8.876126099176435e-01 -4.508326826542157e-01 -3.566048178009416e-02
26  1.173984503142341e+00  1.173984503142341e+00  1.173984503142341e+00 -1.014570520503093e-01  6.613902445215432e-01 -7.431396947271534e-01 -3.578430078564108e-03
27  1.173984503142341e+00  1.173984503142341e+00  1.173984503142341e+00  1.418069828131212e-01 -4.959749602728262e-01  8.557161143667243e-01 -4.061465278594678e-02
28  1.173984503142341e+00  1.173984503142341e+00  1.173984503142341e+00  1.321632306260605e-01 -2.399347639075365e-01  9.612364918362100e-01 -3.144195129971293e-02
29  1.173984503142341e+00  1.173984503142341e+00  1.173984503142341e+00  8.367235412033590e-02  1.106902404533354e-01  9.901932690505372e-01  1.624493001998799e-02
30  1.173984503142341e+00  1.173984503142341e+00  1.173984503142341e+00  3.373945457511544e-02  2.628652299034824e-01  9.632303814952827e-01 -4.416732137242240e-02
31  1.173984503142341e+00  1.173984503142341e+00  1.173984503142341e+00  1.563042723621604e-02  6.398670876288362e-01  7.628488616253261e-01 -9.158282716071196e-02
32  1.173984503142341e+00  1.173984503142341e+00  1.173984503142341e+00  3.525338487438782e-02  7.286729098594424e-01  6.832381766819797e-01 -3.128231475059401e-02

# Bond topology
Bonds

1  1  1  2
2  1  2  3
3  1  3  4
4  1  4  5
5  1  5  6
6  1  6  7
7  1  7  8
8  1  8  9
9  1  9  10
10  1  10  11
11  1  11  12
12  1  12  13
13  1  13  14
14  1  14  15
15  1  15  16
16  1  16  17
17  1  17  18
18  1  18  19
19  1  19  20
20  1  20  21
21  1  21  22
22  1  22  23
23  1  23  24
24  1  24  25
25  1  25  26
26  1  26  27
27  1  27  28
28  1  28  29
29  1  29  30
30  1  30  31
31  1  31  32
