# LAMMPS data file
50 atoms
50 ellipsoids
49 bonds

4 atom types
1 bond types

# System size
-800.000000 800.000000 xlo xhi
-800.000000 800.000000 ylo yhi
-800.000000 800.000000 zlo zhi

Masses

1 3.1575
2 3.1575
3 3.1575
4 3.1575

# Atom-ID, type, position, molecule-ID, ellipsoid flag, density
Atoms

1 3  1.139709260185592e+00  1.188276488663391e-02 -1.974774646018151e+00 1 1 1
2 2  8.014146513266024e-01  7.745949753463255e-02 -1.421841981685841e+00 1 1 1
3 4  4.844564451749236e-01 -1.968889410659779e-01 -1.038999765203099e+00 1 1 1
4 3  3.881601110691426e-01 -6.299243545637371e-01 -7.643711016058065e-01 1 1 1
5 2  2.919816858417468e-01 -1.224864991782108e+00 -7.021073021836113e-01 1 1 1
6 4  5.182084996478047e-01 -1.759362526414652e+00 -7.393637003991547e-01 1 1 1
7 4  9.417410190185490e-01 -2.170714956562573e+00 -7.249530406198638e-01 1 1 1
8 3  1.442852476086446e+00 -2.244224506671294e+00 -4.851516481721571e-01 1 1 1
9 3  1.975683207938177e+00 -2.172927917351491e+00 -3.012035893300121e-01 1 1 1
10 4  2.302623855365109e+00 -1.690837050950927e+00 -1.268431556703451e-01 1 1 1
11 1  2.228425366603343e+00 -1.228526756174091e+00  1.816047300902900e-01 1 1 1
12 3  1.888884918892983e+00 -7.809293873842604e-01  4.360433659666995e-01 1 1 1
13 3  1.275794481251978e+00 -5.477097093622713e-01 -2.747123737966660e-01 1 1 1
14 2  1.613383423338812e+00 -4.042028645221883e-01 -7.729279173514910e-01 1 1 1
15 1  1.692853636150185e+00 -5.981984674165937e-01 -1.300689449081090e+00 1 1 1
16 3  1.581775677082802e+00 -8.643435384913790e-01 -1.770246128403279e+00 1 1 1
17 2  1.304836816154027e+00 -1.258446818501995e+00 -2.186827893871801e+00 1 1 1
18 2  8.134949518666355e-01 -1.544094857947875e+00 -2.463354073726227e+00 1 1 1
19 2  2.571084761681146e-01 -1.619951866635361e+00 -2.607531110589340e+00 1 1 1
20 4 -2.777529936604837e-01 -1.433845973233153e+00 -2.580400328715660e+00 1 1 1
21 3 -6.021417560766459e-01 -9.976418224322917e-01 -2.557923374541891e+00 1 1 1
22 2 -7.972293965719651e-01 -4.211610706738670e-01 -2.358581826719887e+00 1 1 1
23 1 -8.475474396465238e-01  4.845887852462167e-02 -2.456002262588315e+00 1 1 1
24 1 -6.649128049691562e-01  4.907788853550770e-01 -2.722977011248906e+00 1 1 1
25 3 -3.403993589023755e-01  6.174750145471993e-01 -3.496416795124391e+00 1 1 1
26 1  1.876987769215992e-01  1.422212854063054e+00 -3.712080300540033e+00 1 1 1
27 1 -7.151753505944631e-01  1.066298106683174e+00 -3.518778415761276e+00 1 1 1
28 3 -5.352246393825862e-01  1.352991618771502e+00 -2.755765284767806e+00 1 1 1
29 2 -2.689598497299835e-01  1.568830711434609e+00 -2.218214369570321e+00 1 1 1
30 3 -3.684065457292485e-01  1.848882673009586e+00 -1.755704033402411e+00 1 1 1
31 1 -6.646780080684753e-01  2.182250421567162e+00 -1.389704155905142e+00 1 1 1
32 2 -1.163389293261329e+00  2.410659779290913e+00 -1.190608123972763e+00 1 1 1
33 2 -1.757249354308523e+00  2.313993895280582e+00 -1.109732331533224e+00 1 1 1
34 4 -2.233939891993426e+00  2.049659544494012e+00 -9.373444470532989e-01 1 1 1
35 1 -2.416945932677325e+00  1.626646246451365e+00 -6.932485218467842e-01 1 1 1
36 2 -2.403069969476403e+00  1.007237614463489e+00 -5.989140643343507e-01 1 1 1
37 2 -1.968179150035220e+00  5.734914299131251e-01 -4.631310166705799e-01 1 1 1
38 1 -1.455383252577430e+00  4.815737795897458e-01 -2.732075391150292e-01 1 1 1
39 1 -8.865237251595552e-01  7.055380050801513e-01 -1.535838545113022e-01 1 1 1
40 3 -6.848566207621711e-01  1.252299478342538e+00 -9.076533581061078e-01 1 1 1
41 4 -7.458030054003287e-01  9.151561399389527e-01 -1.440150270016435e+00 1 1 1
42 2 -1.040349847382014e+00  8.113465602254050e-01 -1.958534867339751e+00 1 1 1
43 3 -1.319395244852333e+00  9.145237195912492e-01 -2.473886501219922e+00 1 1 1
44 1 -1.296906017204209e+00  6.430233302738586e-01 -3.083710431385942e+00 1 1 1
45 3 -1.040196208540482e+00  5.802035587043295e-02 -3.495885949957634e+00 1 1 1
46 3 -7.917606704982799e-01 -4.002980899782558e-01 -3.470849454352420e+00 1 1 1
47 3 -4.460885898914830e-01 -7.732372367467357e-01 -3.540359545514869e+00 1 1 1
48 2  1.368983329420051e-01 -9.227166001408780e-01 -3.591611880723174e+00 1 1 1
49 1  5.897297701124889e-01 -8.411438878097717e-01 -3.300054430190613e+00 1 1 1
50 3  8.842808579274580e-01 -5.870841287503700e-01 -2.896352481190727e+00 1 1 1

# Atom-ID, translational, rotational velocity
Velocities

1  0.000000000000000e+00  0.000000000000000e+00  0.000000000000000e+00  0.000000000000000e+00  0.000000000000000e+00  0.000000000000000e+00
2  0.000000000000000e+00  0.000000000000000e+00  0.000000000000000e+00  0.000000000000000e+00  0.000000000000000e+00  0.000000000000000e+00
3  0.000000000000000e+00  0.000000000000000e+00  0.000000000000000e+00  0.000000000000000e+00  0.000000000000000e+00  0.000000000000000e+00
4  0.000000000000000e+00  0.000000000000000e+00  0.000000000000000e+00  0.000000000000000e+00  0.000000000000000e+00  0.000000000000000e+00
5  0.000000000000000e+00  0.000000000000000e+00  0.000000000000000e+00  0.000000000000000e+00  0.000000000000000e+00  0.000000000000000e+00
6  0.000000000000000e+00  0.000000000000000e+00  0.000000000000000e+00  0.000000000000000e+00  0.000000000000000e+00  0.000000000000000e+00
7  0.000000000000000e+00  0.000000000000000e+00  0.000000000000000e+00  0.000000000000000e+00  0.000000000000000e+00  0.000000000000000e+00
8  0.000000000000000e+00  0.000000000000000e+00  0.000000000000000e+00  0.000000000000000e+00  0.000000000000000e+00  0.000000000000000e+00
9  0.000000000000000e+00  0.000000000000000e+00  0.000000000000000e+00  0.000000000000000e+00  0.000000000000000e+00  0.000000000000000e+00
10  0.000000000000000e+00  0.000000000000000e+00  0.000000000000000e+00  0.000000000000000e+00  0.000000000000000e+00  0.000000000000000e+00
11  0.000000000000000e+00  0.000000000000000e+00  0.000000000000000e+00  0.000000000000000e+00  0.000000000000000e+00  0.000000000000000e+00
12  0.000000000000000e+00  0.000000000000000e+00  0.000000000000000e+00  0.000000000000000e+00  0.000000000000000e+00  0.000000000000000e+00
13  0.000000000000000e+00  0.000000000000000e+00  0.000000000000000e+00  0.000000000000000e+00  0.000000000000000e+00  0.000000000000000e+00
14  0.000000000000000e+00  0.000000000000000e+00  0.000000000000000e+00  0.000000000000000e+00  0.000000000000000e+00  0.000000000000000e+00
15  0.000000000000000e+00  0.000000000000000e+00  0.000000000000000e+00  0.000000000000000e+00  0.000000000000000e+00  0.000000000000000e+00
16  0.000000000000000e+00  0.000000000000000e+00  0.000000000000000e+00  0.000000000000000e+00  0.000000000000000e+00  0.000000000000000e+00
17  0.000000000000000e+00  0.000000000000000e+00  0.000000000000000e+00  0.000000000000000e+00  0.000000000000000e+00  0.000000000000000e+00
18  0.000000000000000e+00  0.000000000000000e+00  0.000000000000000e+00  0.000000000000000e+00  0.000000000000000e+00  0.000000000000000e+00
19  0.000000000000000e+00  0.000000000000000e+00  0.000000000000000e+00  0.000000000000000e+00  0.000000000000000e+00  0.000000000000000e+00
20  0.000000000000000e+00  0.000000000000000e+00  0.000000000000000e+00  0.000000000000000e+00  0.000000000000000e+00  0.000000000000000e+00
21  0.000000000000000e+00  0.000000000000000e+00  0.000000000000000e+00  0.000000000000000e+00  0.000000000000000e+00  0.000000000000000e+00
22  0.000000000000000e+00  0.000000000000000e+00  0.000000000000000e+00  0.000000000000000e+00  0.000000000000000e+00  0.000000000000000e+00
23  0.000000000000000e+00  0.000000000000000e+00  0.000000000000000e+00  0.000000000000000e+00  0.000000000000000e+00  0.000000000000000e+00
24  0.000000000000000e+00  0.000000000000000e+00  0.000000000000000e+00  0.000000000000000e+00  0.000000000000000e+00  0.000000000000000e+00
25  0.000000000000000e+00  0.000000000000000e+00  0.000000000000000e+00  0.000000000000000e+00  0.000000000000000e+00  0.000000000000000e+00
26  0.000000000000000e+00  0.000000000000000e+00  0.000000000000000e+00  0.000000000000000e+00  0.000000000000000e+00  0.000000000000000e+00
27  0.000000000000000e+00  0.000000000000000e+00  0.000000000000000e+00  0.000000000000000e+00  0.000000000000000e+00  0.000000000000000e+00
28  0.000000000000000e+00  0.000000000000000e+00  0.000000000000000e+00  0.000000000000000e+00  0.000000000000000e+00  0.000000000000000e+00
29  0.000000000000000e+00  0.000000000000000e+00  0.000000000000000e+00  0.000000000000000e+00  0.000000000000000e+00  0.000000000000000e+00
30  0.000000000000000e+00  0.000000000000000e+00  0.000000000000000e+00  0.000000000000000e+00  0.000000000000000e+00  0.000000000000000e+00
31  0.000000000000000e+00  0.000000000000000e+00  0.000000000000000e+00  0.000000000000000e+00  0.000000000000000e+00  0.000000000000000e+00
32  0.000000000000000e+00  0.000000000000000e+00  0.000000000000000e+00  0.000000000000000e+00  0.000000000000000e+00  0.000000000000000e+00
33  0.000000000000000e+00  0.000000000000000e+00  0.000000000000000e+00  0.000000000000000e+00  0.000000000000000e+00  0.000000000000000e+00
34  0.000000000000000e+00  0.000000000000000e+00  0.000000000000000e+00  0.000000000000000e+00  0.000000000000000e+00  0.000000000000000e+00
35  0.000000000000000e+00  0.000000000000000e+00  0.000000000000000e+00  0.000000000000000e+00  0.000000000000000e+00  0.000000000000000e+00
36  0.000000000000000e+00  0.000000000000000e+00  0.000000000000000e+00  0.000000000000000e+00  0.000000000000000e+00  0.000000000000000e+00
37  0.000000000000000e+00  0.000000000000000e+00  0.000000000000000e+00  0.000000000000000e+00  0.000000000000000e+00  0.000000000000000e+00
38  0.000000000000000e+00  0.000000000000000e+00  0.000000000000000e+00  0.000000000000000e+00  0.000000000000000e+00  0.000000000000000e+00
39  0.000000000000000e+00  0.000000000000000e+00  0.000000000000000e+00  0.000000000000000e+00  0.000000000000000e+00  0.000000000000000e+00
40  0.000000000000000e+00  0.000000000000000e+00  0.000000000000000e+00  0.000000000000000e+00  0.000000000000000e+00  0.000000000000000e+00
41  0.000000000000000e+00  0.000000000000000e+00  0.000000000000000e+00  0.000000000000000e+00  0.000000000000000e+00  0.000000000000000e+00
42  0.000000000000000e+00  0.000000000000000e+00  0.000000000000000e+00  0.000000000000000e+00  0.000000000000000e+00  0.000000000000000e+00
43  0.000000000000000e+00  0.000000000000000e+00  0.000000000000000e+00  0.000000000000000e+00  0.000000000000000e+00  0.000000000000000e+00
44  0.000000000000000e+00  0.000000000000000e+00  0.000000000000000e+00  0.000000000000000e+00  0.000000000000000e+00  0.000000000000000e+00
45  0.000000000000000e+00  0.000000000000000e+00  0.000000000000000e+00  0.000000000000000e+00  0.000000000000000e+00  0.000000000000000e+00
46  0.000000000000000e+00  0.000000000000000e+00  0.000000000000000e+00  0.000000000000000e+00  0.000000000000000e+00  0.000000000000000e+00
47  0.000000000000000e+00  0.000000000000000e+00  0.000000000000000e+00  0.000000000000000e+00  0.000000000000000e+00  0.000000000000000e+00
48  0.000000000000000e+00  0.000000000000000e+00  0.000000000000000e+00  0.000000000000000e+00  0.000000000000000e+00  0.000000000000000e+00
49  0.000000000000000e+00  0.000000000000000e+00  0.000000000000000e+00  0.000000000000000e+00  0.000000000000000e+00  0.000000000000000e+00
50  0.000000000000000e+00  0.000000000000000e+00  0.000000000000000e+00  0.000000000000000e+00  0.000000000000000e+00  0.000000000000000e+00

# Atom-ID, shape, quaternion
Ellipsoids

1  1.173984503142341e+00  1.173984503142341e+00  1.173984503142341e+00  6.530051530548020e-01 -7.164423694689960e-02  1.747013789491529e-01 -7.334376603293806e-01
2  1.173984503142341e+00  1.173984503142341e+00  1.173984503142341e+00  9.105912068703819e-01  1.406720942462294e-01  1.253035526138552e-01 -3.678777454169635e-01
3  1.173984503142341e+00  1.173984503142341e+00  1.173984503142341e+00  9.647626419390812e-01  1.750326057011375e-01  1.390734329772127e-01 -1.387631503682691e-01
4  1.173984503142341e+00  1.173984503142341e+00  1.173984503142341e+00  9.697153206515233e-01  2.242873216313588e-01  9.484762849650950e-02 -1.874357537218773e-02
5  1.173984503142341e+00  1.173984503142341e+00  1.173984503142341e+00  8.356724188081314e-01  3.659436354940714e-01 -2.773681877317822e-02  4.086166087778285e-01
6  1.173984503142341e+00  1.173984503142341e+00  1.173984503142341e+00  6.628699778237565e-01  3.308235275701075e-01 -1.215420580937773e-01  6.605957267651162e-01
7  1.173984503142341e+00  1.173984503142341e+00  1.173984503142341e+00  4.099591103526262e-01  3.613060583794274e-01 -1.910740565401376e-01  8.154030689999280e-01
8  1.173984503142341e+00  1.173984503142341e+00  1.173984503142341e+00  3.626009603839249e-01  3.472964917567307e-01 -1.287374754654420e-01  8.551797195636174e-01
9  1.173984503142341e+00  1.173984503142341e+00  1.173984503142341e+00 -9.218044710687701e-03  4.139282035922791e-01  7.942938675866819e-02  9.067907379554130e-01
10  1.173984503142341e+00  1.173984503142341e+00  1.173984503142341e+00 -4.252903008862685e-01  2.742873988486111e-01  8.014912728515185e-03  8.624559953869441e-01
11  1.173984503142341e+00  1.173984503142341e+00  1.173984503142341e+00 -4.704368795346925e-01  2.043307965193202e-01  1.386191351868641e-01  8.471852237424158e-01
12  1.173984503142341e+00  1.173984503142341e+00  1.173984503142341e+00  7.109316503893554e-01 -1.846408928433123e-01 -1.285109917644029e-01 -6.663098784802921e-01
13  1.173984503142341e+00  1.173984503142341e+00  1.173984503142341e+00  3.346521719782115e-02 -4.406403773546703e-01  8.426398046816894e-01  3.076918858999051e-01
14  1.173984503142341e+00  1.173984503142341e+00  1.173984503142341e+00 -8.230538911963371e-02 -5.881899620325480e-02  9.831930496747328e-01  1.519788658952485e-01
15  1.173984503142341e+00  1.173984503142341e+00  1.173984503142341e+00 -1.470248842183301e-01 -2.960463396660279e-02  9.821426056108407e-01  1.135920389474506e-01
16  1.173984503142341e+00  1.173984503142341e+00  1.173984503142341e+00 -2.011047784310355e-01  3.019391223835337e-01  9.309691137675900e-01  4.106267985962100e-02
17  1.173984503142341e+00  1.173984503142341e+00  1.173984503142341e+00 -2.501866638458421e-01  6.355543715028379e-01  7.273318915555704e-01 -6.682509725781598e-02
18  1.173984503142341e+00  1.173984503142341e+00  1.173984503142341e+00 -2.853682212742729e-01  7.190906714061762e-01  6.096767853787765e-01 -1.725334806742548e-01
19  1.173984503142341e+00  1.173984503142341e+00  1.173984503142341e+00 -3.039823562844455e-01  8.200682391636218e-01  3.803335275691976e-01 -3.007145124359707e-01
20  1.173984503142341e+00  1.173984503142341e+00  1.173984503142341e+00 -3.031689848036916e-01  8.819663418418018e-01  1.076187944599754e-01 -3.444446742080223e-01
21  1.173984503142341e+00  1.173984503142341e+00  1.173984503142341e+00 -3.302550133219482e-01  8.572335662433045e-01 -3.939894726606439e-02 -3.931029916393817e-01
22  1.173984503142341e+00  1.173984503142341e+00  1.173984503142341e+00 -2.697578756419226e-01  7.135411891941843e-01 -4.193982629984435e-01 -4.921328650338185e-01
23  1.173984503142341e+00  1.173984503142341e+00  1.173984503142341e+00 -1.110446257398554e-01  5.289904731475954e-01 -6.898127974438325e-01 -4.816601238384725e-01
24  1.173984503142341e+00  1.173984503142341e+00  1.173984503142341e+00 -4.912363565015199e-02 -3.701272905549427e-01  7.903131130665868e-01  4.857960894469702e-01
25  1.173984503142341e+00  1.173984503142341e+00  1.173984503142341e+00  1.577898766413203e-01 -3.157355599442024e-01  6.629059610941271e-01  6.602795603091994e-01
26  1.173984503142341e+00  1.173984503142341e+00  1.173984503142341e+00  1.715213963458326e-01  9.040422783852624e-01  3.815247096184182e-01  8.790259062246698e-02
27  1.173984503142341e+00  1.173984503142341e+00  1.173984503142341e+00  1.151673528901691e-01  2.853880601306411e-01 -4.402275892457853e-01  8.434985510538741e-01
28  1.173984503142341e+00  1.173984503142341e+00  1.173984503142341e+00  1.887335099289826e-01 -6.719746753578565e-02 -1.400195745508967e-01  9.696693670160204e-01
29  1.173984503142341e+00  1.173984503142341e+00  1.173984503142341e+00 -3.267838000906226e-01 -1.283147043455707e-01 -2.009362534534027e-02  9.361324323339738e-01
30  1.173984503142341e+00  1.173984503142341e+00  1.173984503142341e+00 -3.894905061306087e-01 -1.694232450817773e-01  2.189688108866013e-02  9.050488584925520e-01
31  1.173984503142341e+00  1.173984503142341e+00  1.173984503142341e+00  5.448395807058369e-01  2.213372146381527e-01 -1.233271307520061e-01 -7.993435353669845e-01
32  1.173984503142341e+00  1.173984503142341e+00  1.173984503142341e+00  8.308046518359796e-01  2.182147647238242e-01 -2.665824456334929e-01 -4.371266940193523e-01
33  1.173984503142341e+00  1.173984503142341e+00  1.173984503142341e+00  9.380337881401041e-01  1.337866924495213e-01 -3.077767308672917e-01 -8.641306132516392e-02
34  1.173984503142341e+00  1.173984503142341e+00  1.173984503142341e+00  9.318118856708572e-01  1.801228343991706e-01 -2.951469804622966e-01  1.103205972360518e-01
35  1.173984503142341e+00  1.173984503142341e+00  1.173984503142341e+00  9.126133482693896e-01  2.182411406105989e-01 -1.962460479044084e-01  2.845965034701223e-01
36  1.173984503142341e+00  1.173984503142341e+00  1.173984503142341e+00  7.005745772616648e-01  1.445916096281931e-01 -2.362512281151113e-01  6.576274669855795e-01
37  1.173984503142341e+00  1.173984503142341e+00  1.173984503142341e+00  4.920869105781032e-01  2.900081179696093e-01 -1.837386415887021e-01  7.999911721616443e-01
38  1.173984503142341e+00  1.173984503142341e+00  1.173984503142341e+00  3.799926176934916e-01  4.028162966818858e-01 -5.202071451415460e-02  8.310466213681249e-01
39  1.173984503142341e+00  1.173984503142341e+00  1.173984503142341e+00  1.215993289444386e-01  3.176804546681716e-01 -8.571467917483304e-02  9.364538032898587e-01
40  1.173984503142341e+00  1.173984503142341e+00  1.173984503142341e+00  1.899823779229470e-01  4.263289291812444e-01  8.780478120637998e-01  1.057467727729327e-01
41  1.173984503142341e+00  1.173984503142341e+00  1.173984503142341e+00  4.588682637165314e-02  7.082190219011040e-01  6.830744870644796e-01  1.724223341234521e-01
42  1.173984503142341e+00  1.173984503142341e+00  1.173984503142341e+00 -1.252435901106969e-02  8.928570763473778e-01  4.383336283984230e-01  1.025329793912580e-01
43  1.173984503142341e+00  1.173984503142341e+00  1.173984503142341e+00 -2.779676822103313e-02  9.188330519602722e-01  3.680241707804434e-01  1.397546851565434e-01
44  1.173984503142341e+00  1.173984503142341e+00  1.173984503142341e+00  8.578210464027960e-01  4.744478220355832e-01  6.758213820257712e-02  1.856743684789894e-01
45  1.173984503142341e+00  1.173984503142341e+00  1.173984503142341e+00  8.394313940204863e-01  5.405633733427250e-01  2.525824061645307e-02  5.008188708623169e-02
46  1.173984503142341e+00  1.173984503142341e+00  1.173984503142341e+00  7.461056718651297e-01  5.261960209302775e-01  8.627633034377101e-02  3.987486285747435e-01
47  1.173984503142341e+00  1.173984503142341e+00  1.173984503142341e+00  4.151742048829015e-01  4.912896479672277e-01 -1.396821899221271e-01  7.528304903619716e-01
48  1.173984503142341e+00  1.173984503142341e+00  1.173984503142341e+00  7.211511607816727e-02  3.826225918689430e-01 -2.491212743565531e-01  8.867569863764772e-01
49  1.173984503142341e+00  1.173984503142341e+00  1.173984503142341e+00 -3.465171177282358e-03  3.276817015623351e-01 -1.928037523197847e-01  9.248996746357606e-01
50  1.173984503142341e+00  1.173984503142341e+00  1.173984503142341e+00 -2.948145260312809e-01  2.321018297184950e-01 -2.168165671358828e-01  9.012234529225752e-01

# Bond topology
Bonds

1  1  1  2
2  1  2  3
3  1  3  4
4  1  4  5
5  1  5  6
6  1  6  7
7  1  7  8
8  1  8  9
9  1  9  10
10  1  10  11
11  1  11  12
12  1  12  13
13  1  13  14
14  1  14  15
15  1  15  16
16  1  16  17
17  1  17  18
18  1  18  19
19  1  19  20
20  1  20  21
21  1  21  22
22  1  22  23
23  1  23  24
24  1  24  25
25  1  25  26
26  1  26  27
27  1  27  28
28  1  28  29
29  1  29  30
30  1  30  31
31  1  31  32
32  1  32  33
33  1  33  34
34  1  34  35
35  1  35  36
36  1  36  37
37  1  37  38
38  1  38  39
39  1  39  40
40  1  40  41
41  1  41  42
42  1  42  43
43  1  43  44
44  1  44  45
45  1  45  46
46  1  46  47
47  1  47  48
48  1  48  49
49  1  49  50
